File written on 22Jul2022 at 20:19:03 

calc_only_A  :  F

begin real_lattice
   3.3389944   1.9277047   0.0000000
  -3.3389944   1.9277047   0.0000000
  -0.0000225   0.0000000   6.9582312
end real_lattice

begin recip_lattice
   0.9408799   1.6297064   0.0000030
  -0.9408799   1.6297064  -0.0000030
   0.0000000  -0.0000000   0.9029860
end recip_lattice

begin kpoints
   500
    0.00000000    0.00000000    0.00000000
    0.00000000    0.00000000    0.20000000
    0.00000000    0.00000000    0.40000000
    0.00000000    0.00000000    0.60000000
    0.00000000    0.00000000    0.80000000
    0.00000000    0.10000000    0.00000000
    0.00000000    0.10000000    0.20000000
    0.00000000    0.10000000    0.40000000
    0.00000000    0.10000000    0.60000000
    0.00000000    0.10000000    0.80000000
    0.00000000    0.20000000    0.00000000
    0.00000000    0.20000000    0.20000000
    0.00000000    0.20000000    0.40000000
    0.00000000    0.20000000    0.60000000
    0.00000000    0.20000000    0.80000000
    0.00000000    0.30000000    0.00000000
    0.00000000    0.30000000    0.20000000
    0.00000000    0.30000000    0.40000000
    0.00000000    0.30000000    0.60000000
    0.00000000    0.30000000    0.80000000
    0.00000000    0.40000000    0.00000000
    0.00000000    0.40000000    0.20000000
    0.00000000    0.40000000    0.40000000
    0.00000000    0.40000000    0.60000000
    0.00000000    0.40000000    0.80000000
    0.00000000    0.50000000    0.00000000
    0.00000000    0.50000000    0.20000000
    0.00000000    0.50000000    0.40000000
    0.00000000    0.50000000    0.60000000
    0.00000000    0.50000000    0.80000000
    0.00000000    0.60000000    0.00000000
    0.00000000    0.60000000    0.20000000
    0.00000000    0.60000000    0.40000000
    0.00000000    0.60000000    0.60000000
    0.00000000    0.60000000    0.80000000
    0.00000000    0.70000000    0.00000000
    0.00000000    0.70000000    0.20000000
    0.00000000    0.70000000    0.40000000
    0.00000000    0.70000000    0.60000000
    0.00000000    0.70000000    0.80000000
    0.00000000    0.80000000    0.00000000
    0.00000000    0.80000000    0.20000000
    0.00000000    0.80000000    0.40000000
    0.00000000    0.80000000    0.60000000
    0.00000000    0.80000000    0.80000000
    0.00000000    0.90000000    0.00000000
    0.00000000    0.90000000    0.20000000
    0.00000000    0.90000000    0.40000000
    0.00000000    0.90000000    0.60000000
    0.00000000    0.90000000    0.80000000
    0.10000000    0.00000000    0.00000000
    0.10000000    0.00000000    0.20000000
    0.10000000    0.00000000    0.40000000
    0.10000000    0.00000000    0.60000000
    0.10000000    0.00000000    0.80000000
    0.10000000    0.10000000    0.00000000
    0.10000000    0.10000000    0.20000000
    0.10000000    0.10000000    0.40000000
    0.10000000    0.10000000    0.60000000
    0.10000000    0.10000000    0.80000000
    0.10000000    0.20000000    0.00000000
    0.10000000    0.20000000    0.20000000
    0.10000000    0.20000000    0.40000000
    0.10000000    0.20000000    0.60000000
    0.10000000    0.20000000    0.80000000
    0.10000000    0.30000000    0.00000000
    0.10000000    0.30000000    0.20000000
    0.10000000    0.30000000    0.40000000
    0.10000000    0.30000000    0.60000000
    0.10000000    0.30000000    0.80000000
    0.10000000    0.40000000    0.00000000
    0.10000000    0.40000000    0.20000000
    0.10000000    0.40000000    0.40000000
    0.10000000    0.40000000    0.60000000
    0.10000000    0.40000000    0.80000000
    0.10000000    0.50000000    0.00000000
    0.10000000    0.50000000    0.20000000
    0.10000000    0.50000000    0.40000000
    0.10000000    0.50000000    0.60000000
    0.10000000    0.50000000    0.80000000
    0.10000000    0.60000000    0.00000000
    0.10000000    0.60000000    0.20000000
    0.10000000    0.60000000    0.40000000
    0.10000000    0.60000000    0.60000000
    0.10000000    0.60000000    0.80000000
    0.10000000    0.70000000    0.00000000
    0.10000000    0.70000000    0.20000000
    0.10000000    0.70000000    0.40000000
    0.10000000    0.70000000    0.60000000
    0.10000000    0.70000000    0.80000000
    0.10000000    0.80000000    0.00000000
    0.10000000    0.80000000    0.20000000
    0.10000000    0.80000000    0.40000000
    0.10000000    0.80000000    0.60000000
    0.10000000    0.80000000    0.80000000
    0.10000000    0.90000000    0.00000000
    0.10000000    0.90000000    0.20000000
    0.10000000    0.90000000    0.40000000
    0.10000000    0.90000000    0.60000000
    0.10000000    0.90000000    0.80000000
    0.20000000    0.00000000    0.00000000
    0.20000000    0.00000000    0.20000000
    0.20000000    0.00000000    0.40000000
    0.20000000    0.00000000    0.60000000
    0.20000000    0.00000000    0.80000000
    0.20000000    0.10000000    0.00000000
    0.20000000    0.10000000    0.20000000
    0.20000000    0.10000000    0.40000000
    0.20000000    0.10000000    0.60000000
    0.20000000    0.10000000    0.80000000
    0.20000000    0.20000000    0.00000000
    0.20000000    0.20000000    0.20000000
    0.20000000    0.20000000    0.40000000
    0.20000000    0.20000000    0.60000000
    0.20000000    0.20000000    0.80000000
    0.20000000    0.30000000    0.00000000
    0.20000000    0.30000000    0.20000000
    0.20000000    0.30000000    0.40000000
    0.20000000    0.30000000    0.60000000
    0.20000000    0.30000000    0.80000000
    0.20000000    0.40000000    0.00000000
    0.20000000    0.40000000    0.20000000
    0.20000000    0.40000000    0.40000000
    0.20000000    0.40000000    0.60000000
    0.20000000    0.40000000    0.80000000
    0.20000000    0.50000000    0.00000000
    0.20000000    0.50000000    0.20000000
    0.20000000    0.50000000    0.40000000
    0.20000000    0.50000000    0.60000000
    0.20000000    0.50000000    0.80000000
    0.20000000    0.60000000    0.00000000
    0.20000000    0.60000000    0.20000000
    0.20000000    0.60000000    0.40000000
    0.20000000    0.60000000    0.60000000
    0.20000000    0.60000000    0.80000000
    0.20000000    0.70000000    0.00000000
    0.20000000    0.70000000    0.20000000
    0.20000000    0.70000000    0.40000000
    0.20000000    0.70000000    0.60000000
    0.20000000    0.70000000    0.80000000
    0.20000000    0.80000000    0.00000000
    0.20000000    0.80000000    0.20000000
    0.20000000    0.80000000    0.40000000
    0.20000000    0.80000000    0.60000000
    0.20000000    0.80000000    0.80000000
    0.20000000    0.90000000    0.00000000
    0.20000000    0.90000000    0.20000000
    0.20000000    0.90000000    0.40000000
    0.20000000    0.90000000    0.60000000
    0.20000000    0.90000000    0.80000000
    0.30000000    0.00000000    0.00000000
    0.30000000    0.00000000    0.20000000
    0.30000000    0.00000000    0.40000000
    0.30000000    0.00000000    0.60000000
    0.30000000    0.00000000    0.80000000
    0.30000000    0.10000000    0.00000000
    0.30000000    0.10000000    0.20000000
    0.30000000    0.10000000    0.40000000
    0.30000000    0.10000000    0.60000000
    0.30000000    0.10000000    0.80000000
    0.30000000    0.20000000    0.00000000
    0.30000000    0.20000000    0.20000000
    0.30000000    0.20000000    0.40000000
    0.30000000    0.20000000    0.60000000
    0.30000000    0.20000000    0.80000000
    0.30000000    0.30000000    0.00000000
    0.30000000    0.30000000    0.20000000
    0.30000000    0.30000000    0.40000000
    0.30000000    0.30000000    0.60000000
    0.30000000    0.30000000    0.80000000
    0.30000000    0.40000000    0.00000000
    0.30000000    0.40000000    0.20000000
    0.30000000    0.40000000    0.40000000
    0.30000000    0.40000000    0.60000000
    0.30000000    0.40000000    0.80000000
    0.30000000    0.50000000    0.00000000
    0.30000000    0.50000000    0.20000000
    0.30000000    0.50000000    0.40000000
    0.30000000    0.50000000    0.60000000
    0.30000000    0.50000000    0.80000000
    0.30000000    0.60000000    0.00000000
    0.30000000    0.60000000    0.20000000
    0.30000000    0.60000000    0.40000000
    0.30000000    0.60000000    0.60000000
    0.30000000    0.60000000    0.80000000
    0.30000000    0.70000000    0.00000000
    0.30000000    0.70000000    0.20000000
    0.30000000    0.70000000    0.40000000
    0.30000000    0.70000000    0.60000000
    0.30000000    0.70000000    0.80000000
    0.30000000    0.80000000    0.00000000
    0.30000000    0.80000000    0.20000000
    0.30000000    0.80000000    0.40000000
    0.30000000    0.80000000    0.60000000
    0.30000000    0.80000000    0.80000000
    0.30000000    0.90000000    0.00000000
    0.30000000    0.90000000    0.20000000
    0.30000000    0.90000000    0.40000000
    0.30000000    0.90000000    0.60000000
    0.30000000    0.90000000    0.80000000
    0.40000000    0.00000000    0.00000000
    0.40000000    0.00000000    0.20000000
    0.40000000    0.00000000    0.40000000
    0.40000000    0.00000000    0.60000000
    0.40000000    0.00000000    0.80000000
    0.40000000    0.10000000    0.00000000
    0.40000000    0.10000000    0.20000000
    0.40000000    0.10000000    0.40000000
    0.40000000    0.10000000    0.60000000
    0.40000000    0.10000000    0.80000000
    0.40000000    0.20000000    0.00000000
    0.40000000    0.20000000    0.20000000
    0.40000000    0.20000000    0.40000000
    0.40000000    0.20000000    0.60000000
    0.40000000    0.20000000    0.80000000
    0.40000000    0.30000000    0.00000000
    0.40000000    0.30000000    0.20000000
    0.40000000    0.30000000    0.40000000
    0.40000000    0.30000000    0.60000000
    0.40000000    0.30000000    0.80000000
    0.40000000    0.40000000    0.00000000
    0.40000000    0.40000000    0.20000000
    0.40000000    0.40000000    0.40000000
    0.40000000    0.40000000    0.60000000
    0.40000000    0.40000000    0.80000000
    0.40000000    0.50000000    0.00000000
    0.40000000    0.50000000    0.20000000
    0.40000000    0.50000000    0.40000000
    0.40000000    0.50000000    0.60000000
    0.40000000    0.50000000    0.80000000
    0.40000000    0.60000000    0.00000000
    0.40000000    0.60000000    0.20000000
    0.40000000    0.60000000    0.40000000
    0.40000000    0.60000000    0.60000000
    0.40000000    0.60000000    0.80000000
    0.40000000    0.70000000    0.00000000
    0.40000000    0.70000000    0.20000000
    0.40000000    0.70000000    0.40000000
    0.40000000    0.70000000    0.60000000
    0.40000000    0.70000000    0.80000000
    0.40000000    0.80000000    0.00000000
    0.40000000    0.80000000    0.20000000
    0.40000000    0.80000000    0.40000000
    0.40000000    0.80000000    0.60000000
    0.40000000    0.80000000    0.80000000
    0.40000000    0.90000000    0.00000000
    0.40000000    0.90000000    0.20000000
    0.40000000    0.90000000    0.40000000
    0.40000000    0.90000000    0.60000000
    0.40000000    0.90000000    0.80000000
    0.50000000    0.00000000    0.00000000
    0.50000000    0.00000000    0.20000000
    0.50000000    0.00000000    0.40000000
    0.50000000    0.00000000    0.60000000
    0.50000000    0.00000000    0.80000000
    0.50000000    0.10000000    0.00000000
    0.50000000    0.10000000    0.20000000
    0.50000000    0.10000000    0.40000000
    0.50000000    0.10000000    0.60000000
    0.50000000    0.10000000    0.80000000
    0.50000000    0.20000000    0.00000000
    0.50000000    0.20000000    0.20000000
    0.50000000    0.20000000    0.40000000
    0.50000000    0.20000000    0.60000000
    0.50000000    0.20000000    0.80000000
    0.50000000    0.30000000    0.00000000
    0.50000000    0.30000000    0.20000000
    0.50000000    0.30000000    0.40000000
    0.50000000    0.30000000    0.60000000
    0.50000000    0.30000000    0.80000000
    0.50000000    0.40000000    0.00000000
    0.50000000    0.40000000    0.20000000
    0.50000000    0.40000000    0.40000000
    0.50000000    0.40000000    0.60000000
    0.50000000    0.40000000    0.80000000
    0.50000000    0.50000000    0.00000000
    0.50000000    0.50000000    0.20000000
    0.50000000    0.50000000    0.40000000
    0.50000000    0.50000000    0.60000000
    0.50000000    0.50000000    0.80000000
    0.50000000    0.60000000    0.00000000
    0.50000000    0.60000000    0.20000000
    0.50000000    0.60000000    0.40000000
    0.50000000    0.60000000    0.60000000
    0.50000000    0.60000000    0.80000000
    0.50000000    0.70000000    0.00000000
    0.50000000    0.70000000    0.20000000
    0.50000000    0.70000000    0.40000000
    0.50000000    0.70000000    0.60000000
    0.50000000    0.70000000    0.80000000
    0.50000000    0.80000000    0.00000000
    0.50000000    0.80000000    0.20000000
    0.50000000    0.80000000    0.40000000
    0.50000000    0.80000000    0.60000000
    0.50000000    0.80000000    0.80000000
    0.50000000    0.90000000    0.00000000
    0.50000000    0.90000000    0.20000000
    0.50000000    0.90000000    0.40000000
    0.50000000    0.90000000    0.60000000
    0.50000000    0.90000000    0.80000000
    0.60000000    0.00000000    0.00000000
    0.60000000    0.00000000    0.20000000
    0.60000000    0.00000000    0.40000000
    0.60000000    0.00000000    0.60000000
    0.60000000    0.00000000    0.80000000
    0.60000000    0.10000000    0.00000000
    0.60000000    0.10000000    0.20000000
    0.60000000    0.10000000    0.40000000
    0.60000000    0.10000000    0.60000000
    0.60000000    0.10000000    0.80000000
    0.60000000    0.20000000    0.00000000
    0.60000000    0.20000000    0.20000000
    0.60000000    0.20000000    0.40000000
    0.60000000    0.20000000    0.60000000
    0.60000000    0.20000000    0.80000000
    0.60000000    0.30000000    0.00000000
    0.60000000    0.30000000    0.20000000
    0.60000000    0.30000000    0.40000000
    0.60000000    0.30000000    0.60000000
    0.60000000    0.30000000    0.80000000
    0.60000000    0.40000000    0.00000000
    0.60000000    0.40000000    0.20000000
    0.60000000    0.40000000    0.40000000
    0.60000000    0.40000000    0.60000000
    0.60000000    0.40000000    0.80000000
    0.60000000    0.50000000    0.00000000
    0.60000000    0.50000000    0.20000000
    0.60000000    0.50000000    0.40000000
    0.60000000    0.50000000    0.60000000
    0.60000000    0.50000000    0.80000000
    0.60000000    0.60000000    0.00000000
    0.60000000    0.60000000    0.20000000
    0.60000000    0.60000000    0.40000000
    0.60000000    0.60000000    0.60000000
    0.60000000    0.60000000    0.80000000
    0.60000000    0.70000000    0.00000000
    0.60000000    0.70000000    0.20000000
    0.60000000    0.70000000    0.40000000
    0.60000000    0.70000000    0.60000000
    0.60000000    0.70000000    0.80000000
    0.60000000    0.80000000    0.00000000
    0.60000000    0.80000000    0.20000000
    0.60000000    0.80000000    0.40000000
    0.60000000    0.80000000    0.60000000
    0.60000000    0.80000000    0.80000000
    0.60000000    0.90000000    0.00000000
    0.60000000    0.90000000    0.20000000
    0.60000000    0.90000000    0.40000000
    0.60000000    0.90000000    0.60000000
    0.60000000    0.90000000    0.80000000
    0.70000000    0.00000000    0.00000000
    0.70000000    0.00000000    0.20000000
    0.70000000    0.00000000    0.40000000
    0.70000000    0.00000000    0.60000000
    0.70000000    0.00000000    0.80000000
    0.70000000    0.10000000    0.00000000
    0.70000000    0.10000000    0.20000000
    0.70000000    0.10000000    0.40000000
    0.70000000    0.10000000    0.60000000
    0.70000000    0.10000000    0.80000000
    0.70000000    0.20000000    0.00000000
    0.70000000    0.20000000    0.20000000
    0.70000000    0.20000000    0.40000000
    0.70000000    0.20000000    0.60000000
    0.70000000    0.20000000    0.80000000
    0.70000000    0.30000000    0.00000000
    0.70000000    0.30000000    0.20000000
    0.70000000    0.30000000    0.40000000
    0.70000000    0.30000000    0.60000000
    0.70000000    0.30000000    0.80000000
    0.70000000    0.40000000    0.00000000
    0.70000000    0.40000000    0.20000000
    0.70000000    0.40000000    0.40000000
    0.70000000    0.40000000    0.60000000
    0.70000000    0.40000000    0.80000000
    0.70000000    0.50000000    0.00000000
    0.70000000    0.50000000    0.20000000
    0.70000000    0.50000000    0.40000000
    0.70000000    0.50000000    0.60000000
    0.70000000    0.50000000    0.80000000
    0.70000000    0.60000000    0.00000000
    0.70000000    0.60000000    0.20000000
    0.70000000    0.60000000    0.40000000
    0.70000000    0.60000000    0.60000000
    0.70000000    0.60000000    0.80000000
    0.70000000    0.70000000    0.00000000
    0.70000000    0.70000000    0.20000000
    0.70000000    0.70000000    0.40000000
    0.70000000    0.70000000    0.60000000
    0.70000000    0.70000000    0.80000000
    0.70000000    0.80000000    0.00000000
    0.70000000    0.80000000    0.20000000
    0.70000000    0.80000000    0.40000000
    0.70000000    0.80000000    0.60000000
    0.70000000    0.80000000    0.80000000
    0.70000000    0.90000000    0.00000000
    0.70000000    0.90000000    0.20000000
    0.70000000    0.90000000    0.40000000
    0.70000000    0.90000000    0.60000000
    0.70000000    0.90000000    0.80000000
    0.80000000    0.00000000    0.00000000
    0.80000000    0.00000000    0.20000000
    0.80000000    0.00000000    0.40000000
    0.80000000    0.00000000    0.60000000
    0.80000000    0.00000000    0.80000000
    0.80000000    0.10000000    0.00000000
    0.80000000    0.10000000    0.20000000
    0.80000000    0.10000000    0.40000000
    0.80000000    0.10000000    0.60000000
    0.80000000    0.10000000    0.80000000
    0.80000000    0.20000000    0.00000000
    0.80000000    0.20000000    0.20000000
    0.80000000    0.20000000    0.40000000
    0.80000000    0.20000000    0.60000000
    0.80000000    0.20000000    0.80000000
    0.80000000    0.30000000    0.00000000
    0.80000000    0.30000000    0.20000000
    0.80000000    0.30000000    0.40000000
    0.80000000    0.30000000    0.60000000
    0.80000000    0.30000000    0.80000000
    0.80000000    0.40000000    0.00000000
    0.80000000    0.40000000    0.20000000
    0.80000000    0.40000000    0.40000000
    0.80000000    0.40000000    0.60000000
    0.80000000    0.40000000    0.80000000
    0.80000000    0.50000000    0.00000000
    0.80000000    0.50000000    0.20000000
    0.80000000    0.50000000    0.40000000
    0.80000000    0.50000000    0.60000000
    0.80000000    0.50000000    0.80000000
    0.80000000    0.60000000    0.00000000
    0.80000000    0.60000000    0.20000000
    0.80000000    0.60000000    0.40000000
    0.80000000    0.60000000    0.60000000
    0.80000000    0.60000000    0.80000000
    0.80000000    0.70000000    0.00000000
    0.80000000    0.70000000    0.20000000
    0.80000000    0.70000000    0.40000000
    0.80000000    0.70000000    0.60000000
    0.80000000    0.70000000    0.80000000
    0.80000000    0.80000000    0.00000000
    0.80000000    0.80000000    0.20000000
    0.80000000    0.80000000    0.40000000
    0.80000000    0.80000000    0.60000000
    0.80000000    0.80000000    0.80000000
    0.80000000    0.90000000    0.00000000
    0.80000000    0.90000000    0.20000000
    0.80000000    0.90000000    0.40000000
    0.80000000    0.90000000    0.60000000
    0.80000000    0.90000000    0.80000000
    0.90000000    0.00000000    0.00000000
    0.90000000    0.00000000    0.20000000
    0.90000000    0.00000000    0.40000000
    0.90000000    0.00000000    0.60000000
    0.90000000    0.00000000    0.80000000
    0.90000000    0.10000000    0.00000000
    0.90000000    0.10000000    0.20000000
    0.90000000    0.10000000    0.40000000
    0.90000000    0.10000000    0.60000000
    0.90000000    0.10000000    0.80000000
    0.90000000    0.20000000    0.00000000
    0.90000000    0.20000000    0.20000000
    0.90000000    0.20000000    0.40000000
    0.90000000    0.20000000    0.60000000
    0.90000000    0.20000000    0.80000000
    0.90000000    0.30000000    0.00000000
    0.90000000    0.30000000    0.20000000
    0.90000000    0.30000000    0.40000000
    0.90000000    0.30000000    0.60000000
    0.90000000    0.30000000    0.80000000
    0.90000000    0.40000000    0.00000000
    0.90000000    0.40000000    0.20000000
    0.90000000    0.40000000    0.40000000
    0.90000000    0.40000000    0.60000000
    0.90000000    0.40000000    0.80000000
    0.90000000    0.50000000    0.00000000
    0.90000000    0.50000000    0.20000000
    0.90000000    0.50000000    0.40000000
    0.90000000    0.50000000    0.60000000
    0.90000000    0.50000000    0.80000000
    0.90000000    0.60000000    0.00000000
    0.90000000    0.60000000    0.20000000
    0.90000000    0.60000000    0.40000000
    0.90000000    0.60000000    0.60000000
    0.90000000    0.60000000    0.80000000
    0.90000000    0.70000000    0.00000000
    0.90000000    0.70000000    0.20000000
    0.90000000    0.70000000    0.40000000
    0.90000000    0.70000000    0.60000000
    0.90000000    0.70000000    0.80000000
    0.90000000    0.80000000    0.00000000
    0.90000000    0.80000000    0.20000000
    0.90000000    0.80000000    0.40000000
    0.90000000    0.80000000    0.60000000
    0.90000000    0.80000000    0.80000000
    0.90000000    0.90000000    0.00000000
    0.90000000    0.90000000    0.20000000
    0.90000000    0.90000000    0.40000000
    0.90000000    0.90000000    0.60000000
    0.90000000    0.90000000    0.80000000
end kpoints

begin projections
     0
end projections

begin auto_projections
    12
     0
end auto_projections

begin nnkpts
  10
     1     2      0   0   0
     1     5      0   0  -1
     1    96      0  -1   0
     1   456     -1   0   0
     1     6      0   0   0
     1    51      0   0   0
     1    46      0  -1   0
     1   451     -1   0   0
     1   457     -1   0   0
     1   100      0  -1  -1
     2     1      0   0   0
     2     3      0   0   0
     2    97      0  -1   0
     2   457     -1   0   0
     2     7      0   0   0
     2    52      0   0   0
     2    47      0  -1   0
     2   452     -1   0   0
     2    96      0  -1   0
     2   458     -1   0   0
     3     2      0   0   0
     3     4      0   0   0
     3    98      0  -1   0
     3   458     -1   0   0
     3     8      0   0   0
     3    53      0   0   0
     3    48      0  -1   0
     3   453     -1   0   0
     3    97      0  -1   0
     3   459     -1   0   0
     4     3      0   0   0
     4     5      0   0   0
     4    99      0  -1   0
     4   459     -1   0   0
     4     9      0   0   0
     4    54      0   0   0
     4    49      0  -1   0
     4   454     -1   0   0
     4    98      0  -1   0
     4   460     -1   0   0
     5     4      0   0   0
     5     1      0   0   1
     5   100      0  -1   0
     5   460     -1   0   0
     5    10      0   0   0
     5    55      0   0   0
     5    50      0  -1   0
     5   455     -1   0   0
     5    99      0  -1   0
     5   456     -1   0   1
     6     7      0   0   0
     6    10      0   0  -1
     6    51      0   0   0
     6   461     -1   0   0
     6     1      0   0   0
     6    11      0   0   0
     6    56      0   0   0
     6   456     -1   0   0
     6    55      0   0  -1
     6   462     -1   0   0
     7     6      0   0   0
     7     8      0   0   0
     7    52      0   0   0
     7   462     -1   0   0
     7     2      0   0   0
     7    12      0   0   0
     7    57      0   0   0
     7   457     -1   0   0
     7    51      0   0   0
     7   463     -1   0   0
     8     7      0   0   0
     8     9      0   0   0
     8    53      0   0   0
     8   463     -1   0   0
     8     3      0   0   0
     8    13      0   0   0
     8    58      0   0   0
     8   458     -1   0   0
     8    52      0   0   0
     8   464     -1   0   0
     9     8      0   0   0
     9    10      0   0   0
     9    54      0   0   0
     9   464     -1   0   0
     9     4      0   0   0
     9    14      0   0   0
     9    59      0   0   0
     9   459     -1   0   0
     9    53      0   0   0
     9   465     -1   0   0
    10     9      0   0   0
    10     6      0   0   1
    10    55      0   0   0
    10   465     -1   0   0
    10     5      0   0   0
    10    15      0   0   0
    10    60      0   0   0
    10   460     -1   0   0
    10    54      0   0   0
    10   461     -1   0   1
    11    12      0   0   0
    11    15      0   0  -1
    11    56      0   0   0
    11   466     -1   0   0
    11     6      0   0   0
    11    16      0   0   0
    11    61      0   0   0
    11   461     -1   0   0
    11    60      0   0  -1
    11   467     -1   0   0
    12    11      0   0   0
    12    13      0   0   0
    12    57      0   0   0
    12   467     -1   0   0
    12     7      0   0   0
    12    17      0   0   0
    12    62      0   0   0
    12   462     -1   0   0
    12    56      0   0   0
    12   468     -1   0   0
    13    12      0   0   0
    13    14      0   0   0
    13    58      0   0   0
    13   468     -1   0   0
    13     8      0   0   0
    13    18      0   0   0
    13    63      0   0   0
    13   463     -1   0   0
    13    57      0   0   0
    13   469     -1   0   0
    14    13      0   0   0
    14    15      0   0   0
    14    59      0   0   0
    14   469     -1   0   0
    14     9      0   0   0
    14    19      0   0   0
    14    64      0   0   0
    14   464     -1   0   0
    14    58      0   0   0
    14   470     -1   0   0
    15    14      0   0   0
    15    11      0   0   1
    15    60      0   0   0
    15   470     -1   0   0
    15    10      0   0   0
    15    20      0   0   0
    15    65      0   0   0
    15   465     -1   0   0
    15    59      0   0   0
    15   466     -1   0   1
    16    17      0   0   0
    16    20      0   0  -1
    16    61      0   0   0
    16   471     -1   0   0
    16    11      0   0   0
    16    21      0   0   0
    16    66      0   0   0
    16   466     -1   0   0
    16    65      0   0  -1
    16   472     -1   0   0
    17    16      0   0   0
    17    18      0   0   0
    17    62      0   0   0
    17   472     -1   0   0
    17    12      0   0   0
    17    22      0   0   0
    17    67      0   0   0
    17   467     -1   0   0
    17    61      0   0   0
    17   473     -1   0   0
    18    17      0   0   0
    18    19      0   0   0
    18    63      0   0   0
    18   473     -1   0   0
    18    13      0   0   0
    18    23      0   0   0
    18    68      0   0   0
    18   468     -1   0   0
    18    62      0   0   0
    18   474     -1   0   0
    19    18      0   0   0
    19    20      0   0   0
    19    64      0   0   0
    19   474     -1   0   0
    19    14      0   0   0
    19    24      0   0   0
    19    69      0   0   0
    19   469     -1   0   0
    19    63      0   0   0
    19   475     -1   0   0
    20    19      0   0   0
    20    16      0   0   1
    20    65      0   0   0
    20   475     -1   0   0
    20    15      0   0   0
    20    25      0   0   0
    20    70      0   0   0
    20   470     -1   0   0
    20    64      0   0   0
    20   471     -1   0   1
    21    22      0   0   0
    21    25      0   0  -1
    21    66      0   0   0
    21   476     -1   0   0
    21    16      0   0   0
    21    26      0   0   0
    21    71      0   0   0
    21   471     -1   0   0
    21    70      0   0  -1
    21   477     -1   0   0
    22    21      0   0   0
    22    23      0   0   0
    22    67      0   0   0
    22   477     -1   0   0
    22    17      0   0   0
    22    27      0   0   0
    22    72      0   0   0
    22   472     -1   0   0
    22    66      0   0   0
    22   478     -1   0   0
    23    22      0   0   0
    23    24      0   0   0
    23    68      0   0   0
    23   478     -1   0   0
    23    18      0   0   0
    23    28      0   0   0
    23    73      0   0   0
    23   473     -1   0   0
    23    67      0   0   0
    23   479     -1   0   0
    24    23      0   0   0
    24    25      0   0   0
    24    69      0   0   0
    24   479     -1   0   0
    24    19      0   0   0
    24    29      0   0   0
    24    74      0   0   0
    24   474     -1   0   0
    24    68      0   0   0
    24   480     -1   0   0
    25    24      0   0   0
    25    21      0   0   1
    25    70      0   0   0
    25   480     -1   0   0
    25    20      0   0   0
    25    30      0   0   0
    25    75      0   0   0
    25   475     -1   0   0
    25    69      0   0   0
    25   476     -1   0   1
    26    27      0   0   0
    26    30      0   0  -1
    26    71      0   0   0
    26   481     -1   0   0
    26    21      0   0   0
    26    31      0   0   0
    26    76      0   0   0
    26   476     -1   0   0
    26    75      0   0  -1
    26   482     -1   0   0
    27    26      0   0   0
    27    28      0   0   0
    27    72      0   0   0
    27   482     -1   0   0
    27    22      0   0   0
    27    32      0   0   0
    27    77      0   0   0
    27   477     -1   0   0
    27    71      0   0   0
    27   483     -1   0   0
    28    27      0   0   0
    28    29      0   0   0
    28    73      0   0   0
    28   483     -1   0   0
    28    23      0   0   0
    28    33      0   0   0
    28    78      0   0   0
    28   478     -1   0   0
    28    72      0   0   0
    28   484     -1   0   0
    29    28      0   0   0
    29    30      0   0   0
    29    74      0   0   0
    29   484     -1   0   0
    29    24      0   0   0
    29    34      0   0   0
    29    79      0   0   0
    29   479     -1   0   0
    29    73      0   0   0
    29   485     -1   0   0
    30    29      0   0   0
    30    26      0   0   1
    30    75      0   0   0
    30   485     -1   0   0
    30    25      0   0   0
    30    35      0   0   0
    30    80      0   0   0
    30   480     -1   0   0
    30    74      0   0   0
    30   481     -1   0   1
    31    32      0   0   0
    31    35      0   0  -1
    31    76      0   0   0
    31   486     -1   0   0
    31    26      0   0   0
    31    36      0   0   0
    31    81      0   0   0
    31   481     -1   0   0
    31    80      0   0  -1
    31   487     -1   0   0
    32    31      0   0   0
    32    33      0   0   0
    32    77      0   0   0
    32   487     -1   0   0
    32    27      0   0   0
    32    37      0   0   0
    32    82      0   0   0
    32   482     -1   0   0
    32    76      0   0   0
    32   488     -1   0   0
    33    32      0   0   0
    33    34      0   0   0
    33    78      0   0   0
    33   488     -1   0   0
    33    28      0   0   0
    33    38      0   0   0
    33    83      0   0   0
    33   483     -1   0   0
    33    77      0   0   0
    33   489     -1   0   0
    34    33      0   0   0
    34    35      0   0   0
    34    79      0   0   0
    34   489     -1   0   0
    34    29      0   0   0
    34    39      0   0   0
    34    84      0   0   0
    34   484     -1   0   0
    34    78      0   0   0
    34   490     -1   0   0
    35    34      0   0   0
    35    31      0   0   1
    35    80      0   0   0
    35   490     -1   0   0
    35    30      0   0   0
    35    40      0   0   0
    35    85      0   0   0
    35   485     -1   0   0
    35    79      0   0   0
    35   486     -1   0   1
    36    37      0   0   0
    36    40      0   0  -1
    36    81      0   0   0
    36   491     -1   0   0
    36    31      0   0   0
    36    41      0   0   0
    36    86      0   0   0
    36   486     -1   0   0
    36    85      0   0  -1
    36   492     -1   0   0
    37    36      0   0   0
    37    38      0   0   0
    37    82      0   0   0
    37   492     -1   0   0
    37    32      0   0   0
    37    42      0   0   0
    37    87      0   0   0
    37   487     -1   0   0
    37    81      0   0   0
    37   493     -1   0   0
    38    37      0   0   0
    38    39      0   0   0
    38    83      0   0   0
    38   493     -1   0   0
    38    33      0   0   0
    38    43      0   0   0
    38    88      0   0   0
    38   488     -1   0   0
    38    82      0   0   0
    38   494     -1   0   0
    39    38      0   0   0
    39    40      0   0   0
    39    84      0   0   0
    39   494     -1   0   0
    39    34      0   0   0
    39    44      0   0   0
    39    89      0   0   0
    39   489     -1   0   0
    39    83      0   0   0
    39   495     -1   0   0
    40    39      0   0   0
    40    36      0   0   1
    40    85      0   0   0
    40   495     -1   0   0
    40    35      0   0   0
    40    45      0   0   0
    40    90      0   0   0
    40   490     -1   0   0
    40    84      0   0   0
    40   491     -1   0   1
    41    42      0   0   0
    41    45      0   0  -1
    41    86      0   0   0
    41   496     -1   0   0
    41    36      0   0   0
    41    46      0   0   0
    41    91      0   0   0
    41   491     -1   0   0
    41    90      0   0  -1
    41   497     -1   0   0
    42    41      0   0   0
    42    43      0   0   0
    42    87      0   0   0
    42   497     -1   0   0
    42    37      0   0   0
    42    47      0   0   0
    42    92      0   0   0
    42   492     -1   0   0
    42    86      0   0   0
    42   498     -1   0   0
    43    42      0   0   0
    43    44      0   0   0
    43    88      0   0   0
    43   498     -1   0   0
    43    38      0   0   0
    43    48      0   0   0
    43    93      0   0   0
    43   493     -1   0   0
    43    87      0   0   0
    43   499     -1   0   0
    44    43      0   0   0
    44    45      0   0   0
    44    89      0   0   0
    44   499     -1   0   0
    44    39      0   0   0
    44    49      0   0   0
    44    94      0   0   0
    44   494     -1   0   0
    44    88      0   0   0
    44   500     -1   0   0
    45    44      0   0   0
    45    41      0   0   1
    45    90      0   0   0
    45   500     -1   0   0
    45    40      0   0   0
    45    50      0   0   0
    45    95      0   0   0
    45   495     -1   0   0
    45    89      0   0   0
    45   496     -1   0   1
    46    47      0   0   0
    46    50      0   0  -1
    46    91      0   0   0
    46   451     -1   1   0
    46    41      0   0   0
    46    96      0   0   0
    46     1      0   1   0
    46   496     -1   0   0
    46    95      0   0  -1
    46   452     -1   1   0
    47    46      0   0   0
    47    48      0   0   0
    47    92      0   0   0
    47   452     -1   1   0
    47    42      0   0   0
    47    97      0   0   0
    47     2      0   1   0
    47   497     -1   0   0
    47    91      0   0   0
    47   453     -1   1   0
    48    47      0   0   0
    48    49      0   0   0
    48    93      0   0   0
    48   453     -1   1   0
    48    43      0   0   0
    48    98      0   0   0
    48     3      0   1   0
    48   498     -1   0   0
    48    92      0   0   0
    48   454     -1   1   0
    49    48      0   0   0
    49    50      0   0   0
    49    94      0   0   0
    49   454     -1   1   0
    49    44      0   0   0
    49    99      0   0   0
    49     4      0   1   0
    49   499     -1   0   0
    49    93      0   0   0
    49   455     -1   1   0
    50    49      0   0   0
    50    46      0   0   1
    50    95      0   0   0
    50   455     -1   1   0
    50    45      0   0   0
    50   100      0   0   0
    50     5      0   1   0
    50   500     -1   0   0
    50    94      0   0   0
    50   451     -1   1   1
    51    52      0   0   0
    51    55      0   0  -1
    51     6      0   0   0
    51   146      0  -1   0
    51     1      0   0   0
    51    56      0   0   0
    51   101      0   0   0
    51    96      0  -1   0
    51     7      0   0   0
    51   150      0  -1  -1
    52    51      0   0   0
    52    53      0   0   0
    52     7      0   0   0
    52   147      0  -1   0
    52     2      0   0   0
    52    57      0   0   0
    52   102      0   0   0
    52    97      0  -1   0
    52     8      0   0   0
    52   146      0  -1   0
    53    52      0   0   0
    53    54      0   0   0
    53     8      0   0   0
    53   148      0  -1   0
    53     3      0   0   0
    53    58      0   0   0
    53   103      0   0   0
    53    98      0  -1   0
    53     9      0   0   0
    53   147      0  -1   0
    54    53      0   0   0
    54    55      0   0   0
    54     9      0   0   0
    54   149      0  -1   0
    54     4      0   0   0
    54    59      0   0   0
    54   104      0   0   0
    54    99      0  -1   0
    54    10      0   0   0
    54   148      0  -1   0
    55    54      0   0   0
    55    51      0   0   1
    55    10      0   0   0
    55   150      0  -1   0
    55     5      0   0   0
    55    60      0   0   0
    55   105      0   0   0
    55   100      0  -1   0
    55     6      0   0   1
    55   149      0  -1   0
    56    57      0   0   0
    56    60      0   0  -1
    56    11      0   0   0
    56   101      0   0   0
    56     6      0   0   0
    56    51      0   0   0
    56    61      0   0   0
    56   106      0   0   0
    56    12      0   0   0
    56   105      0   0  -1
    57    56      0   0   0
    57    58      0   0   0
    57    12      0   0   0
    57   102      0   0   0
    57     7      0   0   0
    57    52      0   0   0
    57    62      0   0   0
    57   107      0   0   0
    57    13      0   0   0
    57   101      0   0   0
    58    57      0   0   0
    58    59      0   0   0
    58    13      0   0   0
    58   103      0   0   0
    58     8      0   0   0
    58    53      0   0   0
    58    63      0   0   0
    58   108      0   0   0
    58    14      0   0   0
    58   102      0   0   0
    59    58      0   0   0
    59    60      0   0   0
    59    14      0   0   0
    59   104      0   0   0
    59     9      0   0   0
    59    54      0   0   0
    59    64      0   0   0
    59   109      0   0   0
    59    15      0   0   0
    59   103      0   0   0
    60    59      0   0   0
    60    56      0   0   1
    60    15      0   0   0
    60   105      0   0   0
    60    10      0   0   0
    60    55      0   0   0
    60    65      0   0   0
    60   110      0   0   0
    60   104      0   0   0
    60    11      0   0   1
    61    62      0   0   0
    61    65      0   0  -1
    61    16      0   0   0
    61   106      0   0   0
    61    11      0   0   0
    61    56      0   0   0
    61    66      0   0   0
    61   111      0   0   0
    61    17      0   0   0
    61   110      0   0  -1
    62    61      0   0   0
    62    63      0   0   0
    62    17      0   0   0
    62   107      0   0   0
    62    12      0   0   0
    62    57      0   0   0
    62    67      0   0   0
    62   112      0   0   0
    62    18      0   0   0
    62   106      0   0   0
    63    62      0   0   0
    63    64      0   0   0
    63    18      0   0   0
    63   108      0   0   0
    63    13      0   0   0
    63    58      0   0   0
    63    68      0   0   0
    63   113      0   0   0
    63    19      0   0   0
    63   107      0   0   0
    64    63      0   0   0
    64    65      0   0   0
    64    19      0   0   0
    64   109      0   0   0
    64    14      0   0   0
    64    59      0   0   0
    64    69      0   0   0
    64   114      0   0   0
    64    20      0   0   0
    64   108      0   0   0
    65    64      0   0   0
    65    61      0   0   1
    65    20      0   0   0
    65   110      0   0   0
    65    15      0   0   0
    65    60      0   0   0
    65    70      0   0   0
    65   115      0   0   0
    65   109      0   0   0
    65    16      0   0   1
    66    67      0   0   0
    66    70      0   0  -1
    66    21      0   0   0
    66   111      0   0   0
    66    16      0   0   0
    66    61      0   0   0
    66    71      0   0   0
    66   116      0   0   0
    66    22      0   0   0
    66   115      0   0  -1
    67    66      0   0   0
    67    68      0   0   0
    67    22      0   0   0
    67   112      0   0   0
    67    17      0   0   0
    67    62      0   0   0
    67    72      0   0   0
    67   117      0   0   0
    67    23      0   0   0
    67   111      0   0   0
    68    67      0   0   0
    68    69      0   0   0
    68    23      0   0   0
    68   113      0   0   0
    68    18      0   0   0
    68    63      0   0   0
    68    73      0   0   0
    68   118      0   0   0
    68    24      0   0   0
    68   112      0   0   0
    69    68      0   0   0
    69    70      0   0   0
    69    24      0   0   0
    69   114      0   0   0
    69    19      0   0   0
    69    64      0   0   0
    69    74      0   0   0
    69   119      0   0   0
    69    25      0   0   0
    69   113      0   0   0
    70    69      0   0   0
    70    66      0   0   1
    70    25      0   0   0
    70   115      0   0   0
    70    20      0   0   0
    70    65      0   0   0
    70    75      0   0   0
    70   120      0   0   0
    70   114      0   0   0
    70    21      0   0   1
    71    72      0   0   0
    71    75      0   0  -1
    71    26      0   0   0
    71   116      0   0   0
    71    21      0   0   0
    71    66      0   0   0
    71    76      0   0   0
    71   121      0   0   0
    71    27      0   0   0
    71   120      0   0  -1
    72    71      0   0   0
    72    73      0   0   0
    72    27      0   0   0
    72   117      0   0   0
    72    22      0   0   0
    72    67      0   0   0
    72    77      0   0   0
    72   122      0   0   0
    72    28      0   0   0
    72   116      0   0   0
    73    72      0   0   0
    73    74      0   0   0
    73    28      0   0   0
    73   118      0   0   0
    73    23      0   0   0
    73    68      0   0   0
    73    78      0   0   0
    73   123      0   0   0
    73    29      0   0   0
    73   117      0   0   0
    74    73      0   0   0
    74    75      0   0   0
    74    29      0   0   0
    74   119      0   0   0
    74    24      0   0   0
    74    69      0   0   0
    74    79      0   0   0
    74   124      0   0   0
    74    30      0   0   0
    74   118      0   0   0
    75    74      0   0   0
    75    71      0   0   1
    75    30      0   0   0
    75   120      0   0   0
    75    25      0   0   0
    75    70      0   0   0
    75    80      0   0   0
    75   125      0   0   0
    75   119      0   0   0
    75    26      0   0   1
    76    77      0   0   0
    76    80      0   0  -1
    76    31      0   0   0
    76   121      0   0   0
    76    26      0   0   0
    76    71      0   0   0
    76    81      0   0   0
    76   126      0   0   0
    76    32      0   0   0
    76   125      0   0  -1
    77    76      0   0   0
    77    78      0   0   0
    77    32      0   0   0
    77   122      0   0   0
    77    27      0   0   0
    77    72      0   0   0
    77    82      0   0   0
    77   127      0   0   0
    77    33      0   0   0
    77   121      0   0   0
    78    77      0   0   0
    78    79      0   0   0
    78    33      0   0   0
    78   123      0   0   0
    78    28      0   0   0
    78    73      0   0   0
    78    83      0   0   0
    78   128      0   0   0
    78    34      0   0   0
    78   122      0   0   0
    79    78      0   0   0
    79    80      0   0   0
    79    34      0   0   0
    79   124      0   0   0
    79    29      0   0   0
    79    74      0   0   0
    79    84      0   0   0
    79   129      0   0   0
    79    35      0   0   0
    79   123      0   0   0
    80    79      0   0   0
    80    76      0   0   1
    80    35      0   0   0
    80   125      0   0   0
    80    30      0   0   0
    80    75      0   0   0
    80    85      0   0   0
    80   130      0   0   0
    80   124      0   0   0
    80    31      0   0   1
    81    82      0   0   0
    81    85      0   0  -1
    81    36      0   0   0
    81   126      0   0   0
    81    31      0   0   0
    81    76      0   0   0
    81    86      0   0   0
    81   131      0   0   0
    81    37      0   0   0
    81   130      0   0  -1
    82    81      0   0   0
    82    83      0   0   0
    82    37      0   0   0
    82   127      0   0   0
    82    32      0   0   0
    82    77      0   0   0
    82    87      0   0   0
    82   132      0   0   0
    82    38      0   0   0
    82   126      0   0   0
    83    82      0   0   0
    83    84      0   0   0
    83    38      0   0   0
    83   128      0   0   0
    83    33      0   0   0
    83    78      0   0   0
    83    88      0   0   0
    83   133      0   0   0
    83    39      0   0   0
    83   127      0   0   0
    84    83      0   0   0
    84    85      0   0   0
    84    39      0   0   0
    84   129      0   0   0
    84    34      0   0   0
    84    79      0   0   0
    84    89      0   0   0
    84   134      0   0   0
    84    40      0   0   0
    84   128      0   0   0
    85    84      0   0   0
    85    81      0   0   1
    85    40      0   0   0
    85   130      0   0   0
    85    35      0   0   0
    85    80      0   0   0
    85    90      0   0   0
    85   135      0   0   0
    85   129      0   0   0
    85    36      0   0   1
    86    87      0   0   0
    86    90      0   0  -1
    86    41      0   0   0
    86   131      0   0   0
    86    36      0   0   0
    86    81      0   0   0
    86    91      0   0   0
    86   136      0   0   0
    86    42      0   0   0
    86   135      0   0  -1
    87    86      0   0   0
    87    88      0   0   0
    87    42      0   0   0
    87   132      0   0   0
    87    37      0   0   0
    87    82      0   0   0
    87    92      0   0   0
    87   137      0   0   0
    87    43      0   0   0
    87   131      0   0   0
    88    87      0   0   0
    88    89      0   0   0
    88    43      0   0   0
    88   133      0   0   0
    88    38      0   0   0
    88    83      0   0   0
    88    93      0   0   0
    88   138      0   0   0
    88    44      0   0   0
    88   132      0   0   0
    89    88      0   0   0
    89    90      0   0   0
    89    44      0   0   0
    89   134      0   0   0
    89    39      0   0   0
    89    84      0   0   0
    89    94      0   0   0
    89   139      0   0   0
    89    45      0   0   0
    89   133      0   0   0
    90    89      0   0   0
    90    86      0   0   1
    90    45      0   0   0
    90   135      0   0   0
    90    40      0   0   0
    90    85      0   0   0
    90    95      0   0   0
    90   140      0   0   0
    90   134      0   0   0
    90    41      0   0   1
    91    92      0   0   0
    91    95      0   0  -1
    91    46      0   0   0
    91   136      0   0   0
    91    41      0   0   0
    91    86      0   0   0
    91    96      0   0   0
    91   141      0   0   0
    91    47      0   0   0
    91   140      0   0  -1
    92    91      0   0   0
    92    93      0   0   0
    92    47      0   0   0
    92   137      0   0   0
    92    42      0   0   0
    92    87      0   0   0
    92    97      0   0   0
    92   142      0   0   0
    92    48      0   0   0
    92   136      0   0   0
    93    92      0   0   0
    93    94      0   0   0
    93    48      0   0   0
    93   138      0   0   0
    93    43      0   0   0
    93    88      0   0   0
    93    98      0   0   0
    93   143      0   0   0
    93    49      0   0   0
    93   137      0   0   0
    94    93      0   0   0
    94    95      0   0   0
    94    49      0   0   0
    94   139      0   0   0
    94    44      0   0   0
    94    89      0   0   0
    94    99      0   0   0
    94   144      0   0   0
    94    50      0   0   0
    94   138      0   0   0
    95    94      0   0   0
    95    91      0   0   1
    95    50      0   0   0
    95   140      0   0   0
    95    45      0   0   0
    95    90      0   0   0
    95   100      0   0   0
    95   145      0   0   0
    95   139      0   0   0
    95    46      0   0   1
    96    97      0   0   0
    96   100      0   0  -1
    96   141      0   0   0
    96     1      0   1   0
    96    46      0   0   0
    96    91      0   0   0
    96   146      0   0   0
    96    51      0   1   0
    96   145      0   0  -1
    96     2      0   1   0
    97    96      0   0   0
    97    98      0   0   0
    97   142      0   0   0
    97     2      0   1   0
    97    47      0   0   0
    97    92      0   0   0
    97   147      0   0   0
    97    52      0   1   0
    97   141      0   0   0
    97     3      0   1   0
    98    97      0   0   0
    98    99      0   0   0
    98   143      0   0   0
    98     3      0   1   0
    98    48      0   0   0
    98    93      0   0   0
    98   148      0   0   0
    98    53      0   1   0
    98   142      0   0   0
    98     4      0   1   0
    99    98      0   0   0
    99   100      0   0   0
    99   144      0   0   0
    99     4      0   1   0
    99    49      0   0   0
    99    94      0   0   0
    99   149      0   0   0
    99    54      0   1   0
    99   143      0   0   0
    99     5      0   1   0
   100    99      0   0   0
   100    96      0   0   1
   100   145      0   0   0
   100     5      0   1   0
   100    50      0   0   0
   100    95      0   0   0
   100   150      0   0   0
   100    55      0   1   0
   100   144      0   0   0
   100     1      0   1   1
   101   102      0   0   0
   101   105      0   0  -1
   101    56      0   0   0
   101   196      0  -1   0
   101    51      0   0   0
   101   106      0   0   0
   101   151      0   0   0
   101   146      0  -1   0
   101    57      0   0   0
   101   200      0  -1  -1
   102   101      0   0   0
   102   103      0   0   0
   102    57      0   0   0
   102   197      0  -1   0
   102    52      0   0   0
   102   107      0   0   0
   102   152      0   0   0
   102   147      0  -1   0
   102    58      0   0   0
   102   196      0  -1   0
   103   102      0   0   0
   103   104      0   0   0
   103    58      0   0   0
   103   198      0  -1   0
   103    53      0   0   0
   103   108      0   0   0
   103   153      0   0   0
   103   148      0  -1   0
   103    59      0   0   0
   103   197      0  -1   0
   104   103      0   0   0
   104   105      0   0   0
   104    59      0   0   0
   104   199      0  -1   0
   104    54      0   0   0
   104   109      0   0   0
   104   154      0   0   0
   104   149      0  -1   0
   104    60      0   0   0
   104   198      0  -1   0
   105   104      0   0   0
   105   101      0   0   1
   105    60      0   0   0
   105   200      0  -1   0
   105    55      0   0   0
   105   110      0   0   0
   105   155      0   0   0
   105   150      0  -1   0
   105    56      0   0   1
   105   199      0  -1   0
   106   107      0   0   0
   106   110      0   0  -1
   106    61      0   0   0
   106   151      0   0   0
   106    56      0   0   0
   106   101      0   0   0
   106   111      0   0   0
   106   156      0   0   0
   106    62      0   0   0
   106   155      0   0  -1
   107   106      0   0   0
   107   108      0   0   0
   107    62      0   0   0
   107   152      0   0   0
   107    57      0   0   0
   107   102      0   0   0
   107   112      0   0   0
   107   157      0   0   0
   107    63      0   0   0
   107   151      0   0   0
   108   107      0   0   0
   108   109      0   0   0
   108    63      0   0   0
   108   153      0   0   0
   108    58      0   0   0
   108   103      0   0   0
   108   113      0   0   0
   108   158      0   0   0
   108    64      0   0   0
   108   152      0   0   0
   109   108      0   0   0
   109   110      0   0   0
   109    64      0   0   0
   109   154      0   0   0
   109    59      0   0   0
   109   104      0   0   0
   109   114      0   0   0
   109   159      0   0   0
   109    65      0   0   0
   109   153      0   0   0
   110   109      0   0   0
   110   106      0   0   1
   110    65      0   0   0
   110   155      0   0   0
   110    60      0   0   0
   110   105      0   0   0
   110   115      0   0   0
   110   160      0   0   0
   110   154      0   0   0
   110    61      0   0   1
   111   112      0   0   0
   111   115      0   0  -1
   111    66      0   0   0
   111   156      0   0   0
   111    61      0   0   0
   111   106      0   0   0
   111   116      0   0   0
   111   161      0   0   0
   111    67      0   0   0
   111   160      0   0  -1
   112   111      0   0   0
   112   113      0   0   0
   112    67      0   0   0
   112   157      0   0   0
   112    62      0   0   0
   112   107      0   0   0
   112   117      0   0   0
   112   162      0   0   0
   112    68      0   0   0
   112   156      0   0   0
   113   112      0   0   0
   113   114      0   0   0
   113    68      0   0   0
   113   158      0   0   0
   113    63      0   0   0
   113   108      0   0   0
   113   118      0   0   0
   113   163      0   0   0
   113    69      0   0   0
   113   157      0   0   0
   114   113      0   0   0
   114   115      0   0   0
   114    69      0   0   0
   114   159      0   0   0
   114    64      0   0   0
   114   109      0   0   0
   114   119      0   0   0
   114   164      0   0   0
   114    70      0   0   0
   114   158      0   0   0
   115   114      0   0   0
   115   111      0   0   1
   115    70      0   0   0
   115   160      0   0   0
   115    65      0   0   0
   115   110      0   0   0
   115   120      0   0   0
   115   165      0   0   0
   115   159      0   0   0
   115    66      0   0   1
   116   117      0   0   0
   116   120      0   0  -1
   116    71      0   0   0
   116   161      0   0   0
   116    66      0   0   0
   116   111      0   0   0
   116   121      0   0   0
   116   166      0   0   0
   116    72      0   0   0
   116   165      0   0  -1
   117   116      0   0   0
   117   118      0   0   0
   117    72      0   0   0
   117   162      0   0   0
   117    67      0   0   0
   117   112      0   0   0
   117   122      0   0   0
   117   167      0   0   0
   117    73      0   0   0
   117   161      0   0   0
   118   117      0   0   0
   118   119      0   0   0
   118    73      0   0   0
   118   163      0   0   0
   118    68      0   0   0
   118   113      0   0   0
   118   123      0   0   0
   118   168      0   0   0
   118    74      0   0   0
   118   162      0   0   0
   119   118      0   0   0
   119   120      0   0   0
   119    74      0   0   0
   119   164      0   0   0
   119    69      0   0   0
   119   114      0   0   0
   119   124      0   0   0
   119   169      0   0   0
   119    75      0   0   0
   119   163      0   0   0
   120   119      0   0   0
   120   116      0   0   1
   120    75      0   0   0
   120   165      0   0   0
   120    70      0   0   0
   120   115      0   0   0
   120   125      0   0   0
   120   170      0   0   0
   120   164      0   0   0
   120    71      0   0   1
   121   122      0   0   0
   121   125      0   0  -1
   121    76      0   0   0
   121   166      0   0   0
   121    71      0   0   0
   121   116      0   0   0
   121   126      0   0   0
   121   171      0   0   0
   121    77      0   0   0
   121   170      0   0  -1
   122   121      0   0   0
   122   123      0   0   0
   122    77      0   0   0
   122   167      0   0   0
   122    72      0   0   0
   122   117      0   0   0
   122   127      0   0   0
   122   172      0   0   0
   122    78      0   0   0
   122   166      0   0   0
   123   122      0   0   0
   123   124      0   0   0
   123    78      0   0   0
   123   168      0   0   0
   123    73      0   0   0
   123   118      0   0   0
   123   128      0   0   0
   123   173      0   0   0
   123    79      0   0   0
   123   167      0   0   0
   124   123      0   0   0
   124   125      0   0   0
   124    79      0   0   0
   124   169      0   0   0
   124    74      0   0   0
   124   119      0   0   0
   124   129      0   0   0
   124   174      0   0   0
   124    80      0   0   0
   124   168      0   0   0
   125   124      0   0   0
   125   121      0   0   1
   125    80      0   0   0
   125   170      0   0   0
   125    75      0   0   0
   125   120      0   0   0
   125   130      0   0   0
   125   175      0   0   0
   125   169      0   0   0
   125    76      0   0   1
   126   127      0   0   0
   126   130      0   0  -1
   126    81      0   0   0
   126   171      0   0   0
   126    76      0   0   0
   126   121      0   0   0
   126   131      0   0   0
   126   176      0   0   0
   126    82      0   0   0
   126   175      0   0  -1
   127   126      0   0   0
   127   128      0   0   0
   127    82      0   0   0
   127   172      0   0   0
   127    77      0   0   0
   127   122      0   0   0
   127   132      0   0   0
   127   177      0   0   0
   127    83      0   0   0
   127   171      0   0   0
   128   127      0   0   0
   128   129      0   0   0
   128    83      0   0   0
   128   173      0   0   0
   128    78      0   0   0
   128   123      0   0   0
   128   133      0   0   0
   128   178      0   0   0
   128    84      0   0   0
   128   172      0   0   0
   129   128      0   0   0
   129   130      0   0   0
   129    84      0   0   0
   129   174      0   0   0
   129    79      0   0   0
   129   124      0   0   0
   129   134      0   0   0
   129   179      0   0   0
   129    85      0   0   0
   129   173      0   0   0
   130   129      0   0   0
   130   126      0   0   1
   130    85      0   0   0
   130   175      0   0   0
   130    80      0   0   0
   130   125      0   0   0
   130   135      0   0   0
   130   180      0   0   0
   130   174      0   0   0
   130    81      0   0   1
   131   132      0   0   0
   131   135      0   0  -1
   131    86      0   0   0
   131   176      0   0   0
   131    81      0   0   0
   131   126      0   0   0
   131   136      0   0   0
   131   181      0   0   0
   131    87      0   0   0
   131   180      0   0  -1
   132   131      0   0   0
   132   133      0   0   0
   132    87      0   0   0
   132   177      0   0   0
   132    82      0   0   0
   132   127      0   0   0
   132   137      0   0   0
   132   182      0   0   0
   132    88      0   0   0
   132   176      0   0   0
   133   132      0   0   0
   133   134      0   0   0
   133    88      0   0   0
   133   178      0   0   0
   133    83      0   0   0
   133   128      0   0   0
   133   138      0   0   0
   133   183      0   0   0
   133    89      0   0   0
   133   177      0   0   0
   134   133      0   0   0
   134   135      0   0   0
   134    89      0   0   0
   134   179      0   0   0
   134    84      0   0   0
   134   129      0   0   0
   134   139      0   0   0
   134   184      0   0   0
   134    90      0   0   0
   134   178      0   0   0
   135   134      0   0   0
   135   131      0   0   1
   135    90      0   0   0
   135   180      0   0   0
   135    85      0   0   0
   135   130      0   0   0
   135   140      0   0   0
   135   185      0   0   0
   135   179      0   0   0
   135    86      0   0   1
   136   137      0   0   0
   136   140      0   0  -1
   136    91      0   0   0
   136   181      0   0   0
   136    86      0   0   0
   136   131      0   0   0
   136   141      0   0   0
   136   186      0   0   0
   136    92      0   0   0
   136   185      0   0  -1
   137   136      0   0   0
   137   138      0   0   0
   137    92      0   0   0
   137   182      0   0   0
   137    87      0   0   0
   137   132      0   0   0
   137   142      0   0   0
   137   187      0   0   0
   137    93      0   0   0
   137   181      0   0   0
   138   137      0   0   0
   138   139      0   0   0
   138    93      0   0   0
   138   183      0   0   0
   138    88      0   0   0
   138   133      0   0   0
   138   143      0   0   0
   138   188      0   0   0
   138    94      0   0   0
   138   182      0   0   0
   139   138      0   0   0
   139   140      0   0   0
   139    94      0   0   0
   139   184      0   0   0
   139    89      0   0   0
   139   134      0   0   0
   139   144      0   0   0
   139   189      0   0   0
   139    95      0   0   0
   139   183      0   0   0
   140   139      0   0   0
   140   136      0   0   1
   140    95      0   0   0
   140   185      0   0   0
   140    90      0   0   0
   140   135      0   0   0
   140   145      0   0   0
   140   190      0   0   0
   140   184      0   0   0
   140    91      0   0   1
   141   142      0   0   0
   141   145      0   0  -1
   141    96      0   0   0
   141   186      0   0   0
   141    91      0   0   0
   141   136      0   0   0
   141   146      0   0   0
   141   191      0   0   0
   141    97      0   0   0
   141   190      0   0  -1
   142   141      0   0   0
   142   143      0   0   0
   142    97      0   0   0
   142   187      0   0   0
   142    92      0   0   0
   142   137      0   0   0
   142   147      0   0   0
   142   192      0   0   0
   142    98      0   0   0
   142   186      0   0   0
   143   142      0   0   0
   143   144      0   0   0
   143    98      0   0   0
   143   188      0   0   0
   143    93      0   0   0
   143   138      0   0   0
   143   148      0   0   0
   143   193      0   0   0
   143    99      0   0   0
   143   187      0   0   0
   144   143      0   0   0
   144   145      0   0   0
   144    99      0   0   0
   144   189      0   0   0
   144    94      0   0   0
   144   139      0   0   0
   144   149      0   0   0
   144   194      0   0   0
   144   100      0   0   0
   144   188      0   0   0
   145   144      0   0   0
   145   141      0   0   1
   145   100      0   0   0
   145   190      0   0   0
   145    95      0   0   0
   145   140      0   0   0
   145   150      0   0   0
   145   195      0   0   0
   145   189      0   0   0
   145    96      0   0   1
   146   147      0   0   0
   146   150      0   0  -1
   146   191      0   0   0
   146    51      0   1   0
   146    96      0   0   0
   146   141      0   0   0
   146   196      0   0   0
   146   101      0   1   0
   146   195      0   0  -1
   146    52      0   1   0
   147   146      0   0   0
   147   148      0   0   0
   147   192      0   0   0
   147    52      0   1   0
   147    97      0   0   0
   147   142      0   0   0
   147   197      0   0   0
   147   102      0   1   0
   147   191      0   0   0
   147    53      0   1   0
   148   147      0   0   0
   148   149      0   0   0
   148   193      0   0   0
   148    53      0   1   0
   148    98      0   0   0
   148   143      0   0   0
   148   198      0   0   0
   148   103      0   1   0
   148   192      0   0   0
   148    54      0   1   0
   149   148      0   0   0
   149   150      0   0   0
   149   194      0   0   0
   149    54      0   1   0
   149    99      0   0   0
   149   144      0   0   0
   149   199      0   0   0
   149   104      0   1   0
   149   193      0   0   0
   149    55      0   1   0
   150   149      0   0   0
   150   146      0   0   1
   150   195      0   0   0
   150    55      0   1   0
   150   100      0   0   0
   150   145      0   0   0
   150   200      0   0   0
   150   105      0   1   0
   150   194      0   0   0
   150    51      0   1   1
   151   152      0   0   0
   151   155      0   0  -1
   151   106      0   0   0
   151   246      0  -1   0
   151   101      0   0   0
   151   156      0   0   0
   151   201      0   0   0
   151   196      0  -1   0
   151   107      0   0   0
   151   250      0  -1  -1
   152   151      0   0   0
   152   153      0   0   0
   152   107      0   0   0
   152   247      0  -1   0
   152   102      0   0   0
   152   157      0   0   0
   152   202      0   0   0
   152   197      0  -1   0
   152   108      0   0   0
   152   246      0  -1   0
   153   152      0   0   0
   153   154      0   0   0
   153   108      0   0   0
   153   248      0  -1   0
   153   103      0   0   0
   153   158      0   0   0
   153   203      0   0   0
   153   198      0  -1   0
   153   109      0   0   0
   153   247      0  -1   0
   154   153      0   0   0
   154   155      0   0   0
   154   109      0   0   0
   154   249      0  -1   0
   154   104      0   0   0
   154   159      0   0   0
   154   204      0   0   0
   154   199      0  -1   0
   154   110      0   0   0
   154   248      0  -1   0
   155   154      0   0   0
   155   151      0   0   1
   155   110      0   0   0
   155   250      0  -1   0
   155   105      0   0   0
   155   160      0   0   0
   155   205      0   0   0
   155   200      0  -1   0
   155   106      0   0   1
   155   249      0  -1   0
   156   157      0   0   0
   156   160      0   0  -1
   156   111      0   0   0
   156   201      0   0   0
   156   106      0   0   0
   156   151      0   0   0
   156   161      0   0   0
   156   206      0   0   0
   156   112      0   0   0
   156   205      0   0  -1
   157   156      0   0   0
   157   158      0   0   0
   157   112      0   0   0
   157   202      0   0   0
   157   107      0   0   0
   157   152      0   0   0
   157   162      0   0   0
   157   207      0   0   0
   157   113      0   0   0
   157   201      0   0   0
   158   157      0   0   0
   158   159      0   0   0
   158   113      0   0   0
   158   203      0   0   0
   158   108      0   0   0
   158   153      0   0   0
   158   163      0   0   0
   158   208      0   0   0
   158   114      0   0   0
   158   202      0   0   0
   159   158      0   0   0
   159   160      0   0   0
   159   114      0   0   0
   159   204      0   0   0
   159   109      0   0   0
   159   154      0   0   0
   159   164      0   0   0
   159   209      0   0   0
   159   115      0   0   0
   159   203      0   0   0
   160   159      0   0   0
   160   156      0   0   1
   160   115      0   0   0
   160   205      0   0   0
   160   110      0   0   0
   160   155      0   0   0
   160   165      0   0   0
   160   210      0   0   0
   160   204      0   0   0
   160   111      0   0   1
   161   162      0   0   0
   161   165      0   0  -1
   161   116      0   0   0
   161   206      0   0   0
   161   111      0   0   0
   161   156      0   0   0
   161   166      0   0   0
   161   211      0   0   0
   161   117      0   0   0
   161   210      0   0  -1
   162   161      0   0   0
   162   163      0   0   0
   162   117      0   0   0
   162   207      0   0   0
   162   112      0   0   0
   162   157      0   0   0
   162   167      0   0   0
   162   212      0   0   0
   162   118      0   0   0
   162   206      0   0   0
   163   162      0   0   0
   163   164      0   0   0
   163   118      0   0   0
   163   208      0   0   0
   163   113      0   0   0
   163   158      0   0   0
   163   168      0   0   0
   163   213      0   0   0
   163   119      0   0   0
   163   207      0   0   0
   164   163      0   0   0
   164   165      0   0   0
   164   119      0   0   0
   164   209      0   0   0
   164   114      0   0   0
   164   159      0   0   0
   164   169      0   0   0
   164   214      0   0   0
   164   120      0   0   0
   164   208      0   0   0
   165   164      0   0   0
   165   161      0   0   1
   165   120      0   0   0
   165   210      0   0   0
   165   115      0   0   0
   165   160      0   0   0
   165   170      0   0   0
   165   215      0   0   0
   165   209      0   0   0
   165   116      0   0   1
   166   167      0   0   0
   166   170      0   0  -1
   166   121      0   0   0
   166   211      0   0   0
   166   116      0   0   0
   166   161      0   0   0
   166   171      0   0   0
   166   216      0   0   0
   166   122      0   0   0
   166   215      0   0  -1
   167   166      0   0   0
   167   168      0   0   0
   167   122      0   0   0
   167   212      0   0   0
   167   117      0   0   0
   167   162      0   0   0
   167   172      0   0   0
   167   217      0   0   0
   167   123      0   0   0
   167   211      0   0   0
   168   167      0   0   0
   168   169      0   0   0
   168   123      0   0   0
   168   213      0   0   0
   168   118      0   0   0
   168   163      0   0   0
   168   173      0   0   0
   168   218      0   0   0
   168   124      0   0   0
   168   212      0   0   0
   169   168      0   0   0
   169   170      0   0   0
   169   124      0   0   0
   169   214      0   0   0
   169   119      0   0   0
   169   164      0   0   0
   169   174      0   0   0
   169   219      0   0   0
   169   125      0   0   0
   169   213      0   0   0
   170   169      0   0   0
   170   166      0   0   1
   170   125      0   0   0
   170   215      0   0   0
   170   120      0   0   0
   170   165      0   0   0
   170   175      0   0   0
   170   220      0   0   0
   170   214      0   0   0
   170   121      0   0   1
   171   172      0   0   0
   171   175      0   0  -1
   171   126      0   0   0
   171   216      0   0   0
   171   121      0   0   0
   171   166      0   0   0
   171   176      0   0   0
   171   221      0   0   0
   171   127      0   0   0
   171   220      0   0  -1
   172   171      0   0   0
   172   173      0   0   0
   172   127      0   0   0
   172   217      0   0   0
   172   122      0   0   0
   172   167      0   0   0
   172   177      0   0   0
   172   222      0   0   0
   172   128      0   0   0
   172   216      0   0   0
   173   172      0   0   0
   173   174      0   0   0
   173   128      0   0   0
   173   218      0   0   0
   173   123      0   0   0
   173   168      0   0   0
   173   178      0   0   0
   173   223      0   0   0
   173   129      0   0   0
   173   217      0   0   0
   174   173      0   0   0
   174   175      0   0   0
   174   129      0   0   0
   174   219      0   0   0
   174   124      0   0   0
   174   169      0   0   0
   174   179      0   0   0
   174   224      0   0   0
   174   130      0   0   0
   174   218      0   0   0
   175   174      0   0   0
   175   171      0   0   1
   175   130      0   0   0
   175   220      0   0   0
   175   125      0   0   0
   175   170      0   0   0
   175   180      0   0   0
   175   225      0   0   0
   175   219      0   0   0
   175   126      0   0   1
   176   177      0   0   0
   176   180      0   0  -1
   176   131      0   0   0
   176   221      0   0   0
   176   126      0   0   0
   176   171      0   0   0
   176   181      0   0   0
   176   226      0   0   0
   176   132      0   0   0
   176   225      0   0  -1
   177   176      0   0   0
   177   178      0   0   0
   177   132      0   0   0
   177   222      0   0   0
   177   127      0   0   0
   177   172      0   0   0
   177   182      0   0   0
   177   227      0   0   0
   177   133      0   0   0
   177   221      0   0   0
   178   177      0   0   0
   178   179      0   0   0
   178   133      0   0   0
   178   223      0   0   0
   178   128      0   0   0
   178   173      0   0   0
   178   183      0   0   0
   178   228      0   0   0
   178   134      0   0   0
   178   222      0   0   0
   179   178      0   0   0
   179   180      0   0   0
   179   134      0   0   0
   179   224      0   0   0
   179   129      0   0   0
   179   174      0   0   0
   179   184      0   0   0
   179   229      0   0   0
   179   135      0   0   0
   179   223      0   0   0
   180   179      0   0   0
   180   176      0   0   1
   180   135      0   0   0
   180   225      0   0   0
   180   130      0   0   0
   180   175      0   0   0
   180   185      0   0   0
   180   230      0   0   0
   180   224      0   0   0
   180   131      0   0   1
   181   182      0   0   0
   181   185      0   0  -1
   181   136      0   0   0
   181   226      0   0   0
   181   131      0   0   0
   181   176      0   0   0
   181   186      0   0   0
   181   231      0   0   0
   181   137      0   0   0
   181   230      0   0  -1
   182   181      0   0   0
   182   183      0   0   0
   182   137      0   0   0
   182   227      0   0   0
   182   132      0   0   0
   182   177      0   0   0
   182   187      0   0   0
   182   232      0   0   0
   182   138      0   0   0
   182   226      0   0   0
   183   182      0   0   0
   183   184      0   0   0
   183   138      0   0   0
   183   228      0   0   0
   183   133      0   0   0
   183   178      0   0   0
   183   188      0   0   0
   183   233      0   0   0
   183   139      0   0   0
   183   227      0   0   0
   184   183      0   0   0
   184   185      0   0   0
   184   139      0   0   0
   184   229      0   0   0
   184   134      0   0   0
   184   179      0   0   0
   184   189      0   0   0
   184   234      0   0   0
   184   140      0   0   0
   184   228      0   0   0
   185   184      0   0   0
   185   181      0   0   1
   185   140      0   0   0
   185   230      0   0   0
   185   135      0   0   0
   185   180      0   0   0
   185   190      0   0   0
   185   235      0   0   0
   185   229      0   0   0
   185   136      0   0   1
   186   187      0   0   0
   186   190      0   0  -1
   186   141      0   0   0
   186   231      0   0   0
   186   136      0   0   0
   186   181      0   0   0
   186   191      0   0   0
   186   236      0   0   0
   186   142      0   0   0
   186   235      0   0  -1
   187   186      0   0   0
   187   188      0   0   0
   187   142      0   0   0
   187   232      0   0   0
   187   137      0   0   0
   187   182      0   0   0
   187   192      0   0   0
   187   237      0   0   0
   187   143      0   0   0
   187   231      0   0   0
   188   187      0   0   0
   188   189      0   0   0
   188   143      0   0   0
   188   233      0   0   0
   188   138      0   0   0
   188   183      0   0   0
   188   193      0   0   0
   188   238      0   0   0
   188   144      0   0   0
   188   232      0   0   0
   189   188      0   0   0
   189   190      0   0   0
   189   144      0   0   0
   189   234      0   0   0
   189   139      0   0   0
   189   184      0   0   0
   189   194      0   0   0
   189   239      0   0   0
   189   145      0   0   0
   189   233      0   0   0
   190   189      0   0   0
   190   186      0   0   1
   190   145      0   0   0
   190   235      0   0   0
   190   140      0   0   0
   190   185      0   0   0
   190   195      0   0   0
   190   240      0   0   0
   190   234      0   0   0
   190   141      0   0   1
   191   192      0   0   0
   191   195      0   0  -1
   191   146      0   0   0
   191   236      0   0   0
   191   141      0   0   0
   191   186      0   0   0
   191   196      0   0   0
   191   241      0   0   0
   191   147      0   0   0
   191   240      0   0  -1
   192   191      0   0   0
   192   193      0   0   0
   192   147      0   0   0
   192   237      0   0   0
   192   142      0   0   0
   192   187      0   0   0
   192   197      0   0   0
   192   242      0   0   0
   192   148      0   0   0
   192   236      0   0   0
   193   192      0   0   0
   193   194      0   0   0
   193   148      0   0   0
   193   238      0   0   0
   193   143      0   0   0
   193   188      0   0   0
   193   198      0   0   0
   193   243      0   0   0
   193   149      0   0   0
   193   237      0   0   0
   194   193      0   0   0
   194   195      0   0   0
   194   149      0   0   0
   194   239      0   0   0
   194   144      0   0   0
   194   189      0   0   0
   194   199      0   0   0
   194   244      0   0   0
   194   150      0   0   0
   194   238      0   0   0
   195   194      0   0   0
   195   191      0   0   1
   195   150      0   0   0
   195   240      0   0   0
   195   145      0   0   0
   195   190      0   0   0
   195   200      0   0   0
   195   245      0   0   0
   195   239      0   0   0
   195   146      0   0   1
   196   197      0   0   0
   196   200      0   0  -1
   196   241      0   0   0
   196   101      0   1   0
   196   146      0   0   0
   196   191      0   0   0
   196   246      0   0   0
   196   151      0   1   0
   196   245      0   0  -1
   196   102      0   1   0
   197   196      0   0   0
   197   198      0   0   0
   197   242      0   0   0
   197   102      0   1   0
   197   147      0   0   0
   197   192      0   0   0
   197   247      0   0   0
   197   152      0   1   0
   197   241      0   0   0
   197   103      0   1   0
   198   197      0   0   0
   198   199      0   0   0
   198   243      0   0   0
   198   103      0   1   0
   198   148      0   0   0
   198   193      0   0   0
   198   248      0   0   0
   198   153      0   1   0
   198   242      0   0   0
   198   104      0   1   0
   199   198      0   0   0
   199   200      0   0   0
   199   244      0   0   0
   199   104      0   1   0
   199   149      0   0   0
   199   194      0   0   0
   199   249      0   0   0
   199   154      0   1   0
   199   243      0   0   0
   199   105      0   1   0
   200   199      0   0   0
   200   196      0   0   1
   200   245      0   0   0
   200   105      0   1   0
   200   150      0   0   0
   200   195      0   0   0
   200   250      0   0   0
   200   155      0   1   0
   200   244      0   0   0
   200   101      0   1   1
   201   202      0   0   0
   201   205      0   0  -1
   201   156      0   0   0
   201   296      0  -1   0
   201   151      0   0   0
   201   206      0   0   0
   201   251      0   0   0
   201   246      0  -1   0
   201   157      0   0   0
   201   300      0  -1  -1
   202   201      0   0   0
   202   203      0   0   0
   202   157      0   0   0
   202   297      0  -1   0
   202   152      0   0   0
   202   207      0   0   0
   202   252      0   0   0
   202   247      0  -1   0
   202   158      0   0   0
   202   296      0  -1   0
   203   202      0   0   0
   203   204      0   0   0
   203   158      0   0   0
   203   298      0  -1   0
   203   153      0   0   0
   203   208      0   0   0
   203   253      0   0   0
   203   248      0  -1   0
   203   159      0   0   0
   203   297      0  -1   0
   204   203      0   0   0
   204   205      0   0   0
   204   159      0   0   0
   204   299      0  -1   0
   204   154      0   0   0
   204   209      0   0   0
   204   254      0   0   0
   204   249      0  -1   0
   204   160      0   0   0
   204   298      0  -1   0
   205   204      0   0   0
   205   201      0   0   1
   205   160      0   0   0
   205   300      0  -1   0
   205   155      0   0   0
   205   210      0   0   0
   205   255      0   0   0
   205   250      0  -1   0
   205   156      0   0   1
   205   299      0  -1   0
   206   207      0   0   0
   206   210      0   0  -1
   206   161      0   0   0
   206   251      0   0   0
   206   156      0   0   0
   206   201      0   0   0
   206   211      0   0   0
   206   256      0   0   0
   206   162      0   0   0
   206   255      0   0  -1
   207   206      0   0   0
   207   208      0   0   0
   207   162      0   0   0
   207   252      0   0   0
   207   157      0   0   0
   207   202      0   0   0
   207   212      0   0   0
   207   257      0   0   0
   207   163      0   0   0
   207   251      0   0   0
   208   207      0   0   0
[...]
   429   473      0   0   0
   430   429      0   0   0
   430   426      0   0   1
   430   385      0   0   0
   430   475      0   0   0
   430   380      0   0   0
   430   425      0   0   0
   430   435      0   0   0
   430   480      0   0   0
   430   474      0   0   0
   430   381      0   0   1
   431   432      0   0   0
   431   435      0   0  -1
   431   386      0   0   0
   431   476      0   0   0
   431   381      0   0   0
   431   426      0   0   0
   431   436      0   0   0
   431   481      0   0   0
   431   387      0   0   0
   431   480      0   0  -1
   432   431      0   0   0
   432   433      0   0   0
   432   387      0   0   0
   432   477      0   0   0
   432   382      0   0   0
   432   427      0   0   0
   432   437      0   0   0
   432   482      0   0   0
   432   388      0   0   0
   432   476      0   0   0
   433   432      0   0   0
   433   434      0   0   0
   433   388      0   0   0
   433   478      0   0   0
   433   383      0   0   0
   433   428      0   0   0
   433   438      0   0   0
   433   483      0   0   0
   433   389      0   0   0
   433   477      0   0   0
   434   433      0   0   0
   434   435      0   0   0
   434   389      0   0   0
   434   479      0   0   0
   434   384      0   0   0
   434   429      0   0   0
   434   439      0   0   0
   434   484      0   0   0
   434   390      0   0   0
   434   478      0   0   0
   435   434      0   0   0
   435   431      0   0   1
   435   390      0   0   0
   435   480      0   0   0
   435   385      0   0   0
   435   430      0   0   0
   435   440      0   0   0
   435   485      0   0   0
   435   479      0   0   0
   435   386      0   0   1
   436   437      0   0   0
   436   440      0   0  -1
   436   391      0   0   0
   436   481      0   0   0
   436   386      0   0   0
   436   431      0   0   0
   436   441      0   0   0
   436   486      0   0   0
   436   392      0   0   0
   436   485      0   0  -1
   437   436      0   0   0
   437   438      0   0   0
   437   392      0   0   0
   437   482      0   0   0
   437   387      0   0   0
   437   432      0   0   0
   437   442      0   0   0
   437   487      0   0   0
   437   393      0   0   0
   437   481      0   0   0
   438   437      0   0   0
   438   439      0   0   0
   438   393      0   0   0
   438   483      0   0   0
   438   388      0   0   0
   438   433      0   0   0
   438   443      0   0   0
   438   488      0   0   0
   438   394      0   0   0
   438   482      0   0   0
   439   438      0   0   0
   439   440      0   0   0
   439   394      0   0   0
   439   484      0   0   0
   439   389      0   0   0
   439   434      0   0   0
   439   444      0   0   0
   439   489      0   0   0
   439   395      0   0   0
   439   483      0   0   0
   440   439      0   0   0
   440   436      0   0   1
   440   395      0   0   0
   440   485      0   0   0
   440   390      0   0   0
   440   435      0   0   0
   440   445      0   0   0
   440   490      0   0   0
   440   484      0   0   0
   440   391      0   0   1
   441   442      0   0   0
   441   445      0   0  -1
   441   396      0   0   0
   441   486      0   0   0
   441   391      0   0   0
   441   436      0   0   0
   441   446      0   0   0
   441   491      0   0   0
   441   397      0   0   0
   441   490      0   0  -1
   442   441      0   0   0
   442   443      0   0   0
   442   397      0   0   0
   442   487      0   0   0
   442   392      0   0   0
   442   437      0   0   0
   442   447      0   0   0
   442   492      0   0   0
   442   398      0   0   0
   442   486      0   0   0
   443   442      0   0   0
   443   444      0   0   0
   443   398      0   0   0
   443   488      0   0   0
   443   393      0   0   0
   443   438      0   0   0
   443   448      0   0   0
   443   493      0   0   0
   443   399      0   0   0
   443   487      0   0   0
   444   443      0   0   0
   444   445      0   0   0
   444   399      0   0   0
   444   489      0   0   0
   444   394      0   0   0
   444   439      0   0   0
   444   449      0   0   0
   444   494      0   0   0
   444   400      0   0   0
   444   488      0   0   0
   445   444      0   0   0
   445   441      0   0   1
   445   400      0   0   0
   445   490      0   0   0
   445   395      0   0   0
   445   440      0   0   0
   445   450      0   0   0
   445   495      0   0   0
   445   489      0   0   0
   445   396      0   0   1
   446   447      0   0   0
   446   450      0   0  -1
   446   491      0   0   0
   446   351      0   1   0
   446   396      0   0   0
   446   441      0   0   0
   446   496      0   0   0
   446   401      0   1   0
   446   495      0   0  -1
   446   352      0   1   0
   447   446      0   0   0
   447   448      0   0   0
   447   492      0   0   0
   447   352      0   1   0
   447   397      0   0   0
   447   442      0   0   0
   447   497      0   0   0
   447   402      0   1   0
   447   491      0   0   0
   447   353      0   1   0
   448   447      0   0   0
   448   449      0   0   0
   448   493      0   0   0
   448   353      0   1   0
   448   398      0   0   0
   448   443      0   0   0
   448   498      0   0   0
   448   403      0   1   0
   448   492      0   0   0
   448   354      0   1   0
   449   448      0   0   0
   449   450      0   0   0
   449   494      0   0   0
   449   354      0   1   0
   449   399      0   0   0
   449   444      0   0   0
   449   499      0   0   0
   449   404      0   1   0
   449   493      0   0   0
   449   355      0   1   0
   450   449      0   0   0
   450   446      0   0   1
   450   495      0   0   0
   450   355      0   1   0
   450   400      0   0   0
   450   445      0   0   0
   450   500      0   0   0
   450   405      0   1   0
   450   494      0   0   0
   450   351      0   1   1
   451   452      0   0   0
   451   455      0   0  -1
   451   406      0   0   0
   451    46      1  -1   0
   451   401      0   0   0
   451   456      0   0   0
   451     1      1   0   0
   451   496      0  -1   0
   451   407      0   0   0
   451    50      1  -1  -1
   452   451      0   0   0
   452   453      0   0   0
   452   407      0   0   0
   452    47      1  -1   0
   452   402      0   0   0
   452   457      0   0   0
   452     2      1   0   0
   452   497      0  -1   0
   452   408      0   0   0
   452    46      1  -1   0
   453   452      0   0   0
   453   454      0   0   0
   453   408      0   0   0
   453    48      1  -1   0
   453   403      0   0   0
   453   458      0   0   0
   453     3      1   0   0
   453   498      0  -1   0
   453   409      0   0   0
   453    47      1  -1   0
   454   453      0   0   0
   454   455      0   0   0
   454   409      0   0   0
   454    49      1  -1   0
   454   404      0   0   0
   454   459      0   0   0
   454     4      1   0   0
   454   499      0  -1   0
   454   410      0   0   0
   454    48      1  -1   0
   455   454      0   0   0
   455   451      0   0   1
   455   410      0   0   0
   455    50      1  -1   0
   455   405      0   0   0
   455   460      0   0   0
   455     5      1   0   0
   455   500      0  -1   0
   455   406      0   0   1
   455    49      1  -1   0
   456   457      0   0   0
   456   460      0   0  -1
   456   411      0   0   0
   456     1      1   0   0
   456   406      0   0   0
   456   451      0   0   0
   456   461      0   0   0
   456     6      1   0   0
   456   412      0   0   0
   456     5      1   0  -1
   457   456      0   0   0
   457   458      0   0   0
   457   412      0   0   0
   457     2      1   0   0
   457   407      0   0   0
   457   452      0   0   0
   457   462      0   0   0
   457     7      1   0   0
   457   413      0   0   0
   457     1      1   0   0
   458   457      0   0   0
   458   459      0   0   0
   458   413      0   0   0
   458     3      1   0   0
   458   408      0   0   0
   458   453      0   0   0
   458   463      0   0   0
   458     8      1   0   0
   458   414      0   0   0
   458     2      1   0   0
   459   458      0   0   0
   459   460      0   0   0
   459   414      0   0   0
   459     4      1   0   0
   459   409      0   0   0
   459   454      0   0   0
   459   464      0   0   0
   459     9      1   0   0
   459   415      0   0   0
   459     3      1   0   0
   460   459      0   0   0
   460   456      0   0   1
   460   415      0   0   0
   460     5      1   0   0
   460   410      0   0   0
   460   455      0   0   0
   460   465      0   0   0
   460    10      1   0   0
   460   411      0   0   1
   460     4      1   0   0
   461   462      0   0   0
   461   465      0   0  -1
   461   416      0   0   0
   461     6      1   0   0
   461   411      0   0   0
   461   456      0   0   0
   461   466      0   0   0
   461    11      1   0   0
   461   417      0   0   0
   461    10      1   0  -1
   462   461      0   0   0
   462   463      0   0   0
   462   417      0   0   0
   462     7      1   0   0
   462   412      0   0   0
   462   457      0   0   0
   462   467      0   0   0
   462    12      1   0   0
   462   418      0   0   0
   462     6      1   0   0
   463   462      0   0   0
   463   464      0   0   0
   463   418      0   0   0
   463     8      1   0   0
   463   413      0   0   0
   463   458      0   0   0
   463   468      0   0   0
   463    13      1   0   0
   463   419      0   0   0
   463     7      1   0   0
   464   463      0   0   0
   464   465      0   0   0
   464   419      0   0   0
   464     9      1   0   0
   464   414      0   0   0
   464   459      0   0   0
   464   469      0   0   0
   464    14      1   0   0
   464   420      0   0   0
   464     8      1   0   0
   465   464      0   0   0
   465   461      0   0   1
   465   420      0   0   0
   465    10      1   0   0
   465   415      0   0   0
   465   460      0   0   0
   465   470      0   0   0
   465    15      1   0   0
   465   416      0   0   1
   465     9      1   0   0
   466   467      0   0   0
   466   470      0   0  -1
   466   421      0   0   0
   466    11      1   0   0
   466   416      0   0   0
   466   461      0   0   0
   466   471      0   0   0
   466    16      1   0   0
   466   422      0   0   0
   466    15      1   0  -1
   467   466      0   0   0
   467   468      0   0   0
   467   422      0   0   0
   467    12      1   0   0
   467   417      0   0   0
   467   462      0   0   0
   467   472      0   0   0
   467    17      1   0   0
   467   423      0   0   0
   467    11      1   0   0
   468   467      0   0   0
   468   469      0   0   0
   468   423      0   0   0
   468    13      1   0   0
   468   418      0   0   0
   468   463      0   0   0
   468   473      0   0   0
   468    18      1   0   0
   468   424      0   0   0
   468    12      1   0   0
   469   468      0   0   0
   469   470      0   0   0
   469   424      0   0   0
   469    14      1   0   0
   469   419      0   0   0
   469   464      0   0   0
   469   474      0   0   0
   469    19      1   0   0
   469   425      0   0   0
   469    13      1   0   0
   470   469      0   0   0
   470   466      0   0   1
   470   425      0   0   0
   470    15      1   0   0
   470   420      0   0   0
   470   465      0   0   0
   470   475      0   0   0
   470    20      1   0   0
   470   421      0   0   1
   470    14      1   0   0
   471   472      0   0   0
   471   475      0   0  -1
   471   426      0   0   0
   471    16      1   0   0
   471   421      0   0   0
   471   466      0   0   0
   471   476      0   0   0
   471    21      1   0   0
   471   427      0   0   0
   471    20      1   0  -1
   472   471      0   0   0
   472   473      0   0   0
   472   427      0   0   0
   472    17      1   0   0
   472   422      0   0   0
   472   467      0   0   0
   472   477      0   0   0
   472    22      1   0   0
   472   428      0   0   0
   472    16      1   0   0
   473   472      0   0   0
   473   474      0   0   0
   473   428      0   0   0
   473    18      1   0   0
   473   423      0   0   0
   473   468      0   0   0
   473   478      0   0   0
   473    23      1   0   0
   473   429      0   0   0
   473    17      1   0   0
   474   473      0   0   0
   474   475      0   0   0
   474   429      0   0   0
   474    19      1   0   0
   474   424      0   0   0
   474   469      0   0   0
   474   479      0   0   0
   474    24      1   0   0
   474   430      0   0   0
   474    18      1   0   0
   475   474      0   0   0
   475   471      0   0   1
   475   430      0   0   0
   475    20      1   0   0
   475   425      0   0   0
   475   470      0   0   0
   475   480      0   0   0
   475    25      1   0   0
   475   426      0   0   1
   475    19      1   0   0
   476   477      0   0   0
   476   480      0   0  -1
   476   431      0   0   0
   476    21      1   0   0
   476   426      0   0   0
   476   471      0   0   0
   476   481      0   0   0
   476    26      1   0   0
   476   432      0   0   0
   476    25      1   0  -1
   477   476      0   0   0
   477   478      0   0   0
   477   432      0   0   0
   477    22      1   0   0
   477   427      0   0   0
   477   472      0   0   0
   477   482      0   0   0
   477    27      1   0   0
   477   433      0   0   0
   477    21      1   0   0
   478   477      0   0   0
   478   479      0   0   0
   478   433      0   0   0
   478    23      1   0   0
   478   428      0   0   0
   478   473      0   0   0
   478   483      0   0   0
   478    28      1   0   0
   478   434      0   0   0
   478    22      1   0   0
   479   478      0   0   0
   479   480      0   0   0
   479   434      0   0   0
   479    24      1   0   0
   479   429      0   0   0
   479   474      0   0   0
   479   484      0   0   0
   479    29      1   0   0
   479   435      0   0   0
   479    23      1   0   0
   480   479      0   0   0
   480   476      0   0   1
   480   435      0   0   0
   480    25      1   0   0
   480   430      0   0   0
   480   475      0   0   0
   480   485      0   0   0
   480    30      1   0   0
   480   431      0   0   1
   480    24      1   0   0
   481   482      0   0   0
   481   485      0   0  -1
   481   436      0   0   0
   481    26      1   0   0
   481   431      0   0   0
   481   476      0   0   0
   481   486      0   0   0
   481    31      1   0   0
   481   437      0   0   0
   481    30      1   0  -1
   482   481      0   0   0
   482   483      0   0   0
   482   437      0   0   0
   482    27      1   0   0
   482   432      0   0   0
   482   477      0   0   0
   482   487      0   0   0
   482    32      1   0   0
   482   438      0   0   0
   482    26      1   0   0
   483   482      0   0   0
   483   484      0   0   0
   483   438      0   0   0
   483    28      1   0   0
   483   433      0   0   0
   483   478      0   0   0
   483   488      0   0   0
   483    33      1   0   0
   483   439      0   0   0
   483    27      1   0   0
   484   483      0   0   0
   484   485      0   0   0
   484   439      0   0   0
   484    29      1   0   0
   484   434      0   0   0
   484   479      0   0   0
   484   489      0   0   0
   484    34      1   0   0
   484   440      0   0   0
   484    28      1   0   0
   485   484      0   0   0
   485   481      0   0   1
   485   440      0   0   0
   485    30      1   0   0
   485   435      0   0   0
   485   480      0   0   0
   485   490      0   0   0
   485    35      1   0   0
   485   436      0   0   1
   485    29      1   0   0
   486   487      0   0   0
   486   490      0   0  -1
   486   441      0   0   0
   486    31      1   0   0
   486   436      0   0   0
   486   481      0   0   0
   486   491      0   0   0
   486    36      1   0   0
   486   442      0   0   0
   486    35      1   0  -1
   487   486      0   0   0
   487   488      0   0   0
   487   442      0   0   0
   487    32      1   0   0
   487   437      0   0   0
   487   482      0   0   0
   487   492      0   0   0
   487    37      1   0   0
   487   443      0   0   0
   487    31      1   0   0
   488   487      0   0   0
   488   489      0   0   0
   488   443      0   0   0
   488    33      1   0   0
   488   438      0   0   0
   488   483      0   0   0
   488   493      0   0   0
   488    38      1   0   0
   488   444      0   0   0
   488    32      1   0   0
   489   488      0   0   0
   489   490      0   0   0
   489   444      0   0   0
   489    34      1   0   0
   489   439      0   0   0
   489   484      0   0   0
   489   494      0   0   0
   489    39      1   0   0
   489   445      0   0   0
   489    33      1   0   0
   490   489      0   0   0
   490   486      0   0   1
   490   445      0   0   0
   490    35      1   0   0
   490   440      0   0   0
   490   485      0   0   0
   490   495      0   0   0
   490    40      1   0   0
   490   441      0   0   1
   490    34      1   0   0
   491   492      0   0   0
   491   495      0   0  -1
   491   446      0   0   0
   491    36      1   0   0
   491   441      0   0   0
   491   486      0   0   0
   491   496      0   0   0
   491    41      1   0   0
   491   447      0   0   0
   491    40      1   0  -1
   492   491      0   0   0
   492   493      0   0   0
   492   447      0   0   0
   492    37      1   0   0
   492   442      0   0   0
   492   487      0   0   0
   492   497      0   0   0
   492    42      1   0   0
   492   448      0   0   0
   492    36      1   0   0
   493   492      0   0   0
   493   494      0   0   0
   493   448      0   0   0
   493    38      1   0   0
   493   443      0   0   0
   493   488      0   0   0
   493   498      0   0   0
   493    43      1   0   0
   493   449      0   0   0
   493    37      1   0   0
   494   493      0   0   0
   494   495      0   0   0
   494   449      0   0   0
   494    39      1   0   0
   494   444      0   0   0
   494   489      0   0   0
   494   499      0   0   0
   494    44      1   0   0
   494   450      0   0   0
   494    38      1   0   0
   495   494      0   0   0
   495   491      0   0   1
   495   450      0   0   0
   495    40      1   0   0
   495   445      0   0   0
   495   490      0   0   0
   495   500      0   0   0
   495    45      1   0   0
   495   446      0   0   1
   495    39      1   0   0
   496   497      0   0   0
   496   500      0   0  -1
   496    41      1   0   0
   496   401      0   1   0
   496   446      0   0   0
   496   491      0   0   0
   496    46      1   0   0
   496   451      0   1   0
   496   402      0   1   0
   496    45      1   0  -1
   497   496      0   0   0
   497   498      0   0   0
   497    42      1   0   0
   497   402      0   1   0
   497   447      0   0   0
   497   492      0   0   0
   497    47      1   0   0
   497   452      0   1   0
   497    41      1   0   0
   497   403      0   1   0
   498   497      0   0   0
   498   499      0   0   0
   498    43      1   0   0
   498   403      0   1   0
   498   448      0   0   0
   498   493      0   0   0
   498    48      1   0   0
   498   453      0   1   0
   498    42      1   0   0
   498   404      0   1   0
   499   498      0   0   0
   499   500      0   0   0
   499    44      1   0   0
   499   404      0   1   0
   499   449      0   0   0
   499   494      0   0   0
   499    49      1   0   0
   499   454      0   1   0
   499    43      1   0   0
   499   405      0   1   0
   500   499      0   0   0
   500   496      0   0   1
   500    45      1   0   0
   500   405      0   1   0
   500   450      0   0   0
   500   495      0   0   0
   500    50      1   0   0
   500   455      0   1   0
   500    44      1   0   0
   500   401      0   1   1
end nnkpts

begin exclude_bands
   5
   1
   2
   3
   4
   5
end exclude_bands
