written on  5Jul2022 at 13:34:13 
4
0
  -2.6988037638089994       0.0000000000000000      -2.6988037638089994       0.0000000000000000       2.6988037638089994       2.6988037638089994       2.6988037638089994       2.6988037638089994       0.0000000000000000    
  -1.1640685757588602       1.1640685757588602      -1.1640685757588602      -1.1640685757588602       1.1640685757588602       1.1640685757588602       1.1640685757588602       1.1640685757588602      -1.1640685757588602    
64
4 4 4
   0.0000000000000000       0.0000000000000000       0.0000000000000000    
   0.0000000000000000       0.0000000000000000      0.25000000000000000    
   0.0000000000000000       0.0000000000000000      0.50000000000000000    
   0.0000000000000000       0.0000000000000000      0.75000000000000000    
   0.0000000000000000      0.25000000000000000       0.0000000000000000    
   0.0000000000000000      0.25000000000000000      0.25000000000000000    
   0.0000000000000000      0.25000000000000000      0.50000000000000000    
   0.0000000000000000      0.25000000000000000      0.75000000000000000    
   0.0000000000000000      0.50000000000000000       0.0000000000000000    
   0.0000000000000000      0.50000000000000000      0.25000000000000000    
   0.0000000000000000      0.50000000000000000      0.50000000000000000    
   0.0000000000000000      0.50000000000000000      0.75000000000000000    
   0.0000000000000000      0.75000000000000000       0.0000000000000000    
   0.0000000000000000      0.75000000000000000      0.25000000000000000    
   0.0000000000000000      0.75000000000000000      0.50000000000000000    
   0.0000000000000000      0.75000000000000000      0.75000000000000000    
  0.25000000000000000       0.0000000000000000       0.0000000000000000    
  0.25000000000000000       0.0000000000000000      0.25000000000000000    
  0.25000000000000000       0.0000000000000000      0.50000000000000000    
  0.25000000000000000       0.0000000000000000      0.75000000000000000    
  0.25000000000000000      0.25000000000000000       0.0000000000000000    
  0.25000000000000000      0.25000000000000000      0.25000000000000000    
  0.25000000000000000      0.25000000000000000      0.50000000000000000    
  0.25000000000000000      0.25000000000000000      0.75000000000000000    
  0.25000000000000000      0.50000000000000000       0.0000000000000000    
  0.25000000000000000      0.50000000000000000      0.25000000000000000    
  0.25000000000000000      0.50000000000000000      0.50000000000000000    
  0.25000000000000000      0.50000000000000000      0.75000000000000000    
  0.25000000000000000      0.75000000000000000       0.0000000000000000    
  0.25000000000000000      0.75000000000000000      0.25000000000000000    
  0.25000000000000000      0.75000000000000000      0.50000000000000000    
  0.25000000000000000      0.75000000000000000      0.75000000000000000    
  0.50000000000000000       0.0000000000000000       0.0000000000000000    
  0.50000000000000000       0.0000000000000000      0.25000000000000000    
  0.50000000000000000       0.0000000000000000      0.50000000000000000    
  0.50000000000000000       0.0000000000000000      0.75000000000000000    
  0.50000000000000000      0.25000000000000000       0.0000000000000000    
  0.50000000000000000      0.25000000000000000      0.25000000000000000    
  0.50000000000000000      0.25000000000000000      0.50000000000000000    
  0.50000000000000000      0.25000000000000000      0.75000000000000000    
  0.50000000000000000      0.50000000000000000       0.0000000000000000    
  0.50000000000000000      0.50000000000000000      0.25000000000000000    
  0.50000000000000000      0.50000000000000000      0.50000000000000000    
  0.50000000000000000      0.50000000000000000      0.75000000000000000    
  0.50000000000000000      0.75000000000000000       0.0000000000000000    
  0.50000000000000000      0.75000000000000000      0.25000000000000000    
  0.50000000000000000      0.75000000000000000      0.50000000000000000    
  0.50000000000000000      0.75000000000000000      0.75000000000000000    
  0.75000000000000000       0.0000000000000000       0.0000000000000000    
  0.75000000000000000       0.0000000000000000      0.25000000000000000    
  0.75000000000000000       0.0000000000000000      0.50000000000000000    
  0.75000000000000000       0.0000000000000000      0.75000000000000000    
  0.75000000000000000      0.25000000000000000       0.0000000000000000    
  0.75000000000000000      0.25000000000000000      0.25000000000000000    
  0.75000000000000000      0.25000000000000000      0.50000000000000000    
  0.75000000000000000      0.25000000000000000      0.75000000000000000    
  0.75000000000000000      0.50000000000000000       0.0000000000000000    
  0.75000000000000000      0.50000000000000000      0.25000000000000000    
  0.75000000000000000      0.50000000000000000      0.50000000000000000    
  0.75000000000000000      0.50000000000000000      0.75000000000000000    
  0.75000000000000000      0.75000000000000000       0.0000000000000000    
  0.75000000000000000      0.75000000000000000      0.25000000000000000    
  0.75000000000000000      0.75000000000000000      0.50000000000000000    
  0.75000000000000000      0.75000000000000000      0.75000000000000000    
8
4
postwann            
0
  0.49468641069231073      0.36171457153405064E-01
  0.19519913966065638     -0.37114365765967572    
 -0.63283158133176853     -0.18051594238794183    
  0.26182627073236742     -0.27660775510784563    
  0.70687150029058177E-01 -0.51132486940226607    
  0.71429065000715075      0.31501320529999217E-01
  0.35991701446029850      0.12405486617630923    
  0.18700394754344474     -0.20602522989159905    
  0.41874113469101570      0.10510656166084692    
 -0.41871116537150022     -0.27487794370017354    
  0.61372043800658682     -0.11537393976558924E-01
  0.38307370555810960     -0.19799039748718086    
 -0.47726950968334525     -0.27083107919036492    
 -0.23248322004294406      0.89559163857386326E-01
 -0.21265270607615078     -0.11208053413173432E-02
  0.76804146394891537      0.41047902357061711E-01
 -0.87769867471122420E-01  0.41621534524986803    
  0.88287712618292447      0.18122660613281924    
 -0.43630035335416067E-01 -0.10584718136184189E-01
 -0.58412976529937363E-01  0.36310356190978860E-01
  0.60687210002943831E-01  0.53362106407544885    
 -0.21597574158006178      0.35821768203179866E-02
  0.17979818202589523E-01 -0.65958754652641483    
  0.40043834509850906     -0.26301596140661998    
 -0.45402270210640167     -0.53261752487812994E-01
 -0.19949941875112211E-01 -0.27565027446877294    
 -0.14804998147826259     -0.48150502071688028    
 -0.67797762965809683     -0.35013560091906946E-01
  0.54267791452567105      0.16478504798578369    
 -0.91365439541130258E-01  0.23727163086356620    
  0.52859664953626972     -0.17153739671286480    
 -0.47801612613356848      0.27633708668119789    
  0.14510586843749648     -0.88022560586500084E-01
 -0.87884061064200192      0.43832201372199797    
  0.60317134944378174E-01 -0.22381200626036706E-01
  0.15202051152902272E-02 -0.50674680195600418E-01
 -0.99425060182840863E-01  0.55340943500277051    
 -0.35718021905417022E-01  0.13353600825989570    
 -0.84785228455915351E-01  0.75879186420253286    
 -0.27329431107138613      0.84271011970114940E-01
 -0.50154124642275899     -0.18188019403951830    
 -0.17704905251036816E-01 -0.18904439486867011E-01
  0.50267797600668174      0.30446605677537958    
  0.34165708548349810     -0.50258416240366155    
  0.50704531841478706      0.33664519699061179    
  0.10358051784024272      0.70750163278595402E-01
 -0.25985055451442829      0.50889525599633056E-03
  0.41082197943892529     -0.61444550506195772    
 -0.39280816698530757     -0.20128108107571224    
  0.37514094759728384     -0.81109809847727754    
  0.63077881111018072E-01 -0.46152126968126109E-01
 -0.20082261620113940E-01  0.80423436929503711E-02
 -0.24874082560830177      0.46904428898588901    
  0.21917483281708297      0.69799244183214676E-01
 -0.40379632095574408E-01  0.66057162202687258    
 -0.14784383698375154E-01  0.47645771512249585    
 -0.37183953982639106     -0.25510758902776437    
 -0.18593398867938610      0.21889478896697934    
  0.73582978443507852      0.10289497079577327    
 -0.40227217055207709      0.17701750803168180E-01
  0.36472369323238524      0.43237163324289130    
  0.18764923734126279     -0.17544511733168874    
  0.42005133416511464E-01 -0.45918424028908895E-01
 -0.73950900450668500     -0.25157836203936534    
 -0.73267098968349278E-01 -0.53469999200671259    
 -0.23174525167384474      0.87069662167194098E-01
 -0.12661002731016424      0.64413153231955600    
  0.19758757705277441     -0.42126533498983204    
 -0.17851189129251599      0.41641770633965891    
 -0.83346598290479068     -0.30569838741805977    
 -0.95993534690695832E-02  0.18796784562914420E-01
 -0.14236266894644561E-01 -0.77230899208229217E-01
  0.45540505987415936E-01 -0.44005399330345862    
 -0.27908649713127731     -0.40472094161029676E-02
  0.57987031137278455     -0.27210811225826703    
  0.45707246737496876      0.32736103816192907    
 -0.16305321885768589      0.53023564797456657    
  0.24553191203925762      0.11137500129090251    
  0.12638238535457572      0.37729841407433862    
  0.67212201885390610      0.97462227943773488E-01
  0.48921644698576061     -0.14932126696873400E-01
  0.93512879965285442E-01 -0.53048633817374469    
  0.24271694960434925     -0.20149560910119738    
 -0.60009945317881153      0.10321111405625952    
  0.52273821846000157E-01 -0.46655173225522639    
 -0.46227584916370124     -0.16763929868917385    
  0.60811960841790316E-01  0.23847437744133559    
 -0.43671590244174954E-01 -0.68943433510547580    
  0.50085322602406342E-01  0.46254195421112188    
 -0.50081323715364046      0.89563521522126599E-02
  0.56250864801066014     -0.36385070656588581    
  0.28107034693367083     -0.69630672993267487E-01
 -0.97523764110044875E-02 -0.56876402881942478    
  0.44286061253741188      0.14497604704706996    
  0.58065355632981963     -0.23228863591768217    
  0.26098395732728308      0.62932887946990854E-02
  0.97347765844424533E-01 -0.38810923342621734    
 -0.70171890490022526     -0.53441724515455913    
  0.64677650515782156E-01  0.23049356738192525    
 -0.10806418430206180E-02 -0.67614873615005872E-01
  0.79464529231971198E-01 -0.46326821956077568    
 -0.52323064803855547E-01  0.73704497970344174E-01
 -0.60301351855598251     -0.63543362775043422    
 -0.58590922277650920E-01 -0.79871269372784742E-02
  0.50240579800181859E-01  0.52640208653221132    
 -0.29799728843850315      0.66456971955840150E-02
 -0.29586092573691358     -0.10700129910298356    
  0.46280078138011882     -0.56423634196521077    
  0.17753288759272956E-02 -0.58252567016106860    
  0.31805705660183115      0.15431101708360229    
  0.22602174903210728      0.15880655420607373    
  0.52787572805546490     -0.42512395086463761    
 -0.12368696206350344      0.42661279042595529    
 -0.72410305406925735     -0.96851964655086803E-01
  0.65602913870611609E-01 -0.51025933801877010    
 -0.33734669577786418E-01  0.56490390468778538E-01
  0.29154276817434549     -0.30243647984693273    
 -0.44613882036125124     -0.50539271612007564    
 -0.49841851625290134      0.34219230934620215    
  0.47919131944100885E-01  0.35503638077988092E-01
 -0.22572406733052802      0.45154268388042873    
  0.52993790160215257E-01 -0.85208196755278132E-02
 -0.20955340085717547      0.40749547188299806    
 -0.67249618516410048      0.28294981431715388    
  0.37400462371688115     -0.48116155700942476    
 -0.77125898465478557E-01  0.54803915114462809E-01
  0.26211955077327248     -0.30189936307213983    
 -0.66569351488039175      0.12905225334694526    
  0.58568939007111176      0.45537816307407164E-01
  0.68626443569121856E-01  0.60444688637212793E-01
  0.68850013399318299     -0.80325981657376658E-01
 -0.34499246505945791     -0.21685616827065943    
  0.53577678197598719E-01  0.12361847909410349    
 -0.25149520604753195     -0.95510238303855743    
  0.79269797044579510E-02 -0.28268095892621799E-01
 -0.63890433737839342E-01 -0.37862824759320172E-01
  0.49304650727344423      0.17578908529197243    
  0.28297037694519217E-01  0.29008639858932594E-02
 -0.10329328411109719     -0.35961912742871893    
  0.76429887112843387     -0.32342202155577593E-01
 -0.49901432881904906     -0.33723906722151892    
 -0.11002603606703423     -0.57022663398063049E-01
  0.61161638731734413     -0.67700482415930657E-01
  0.44562955662724851     -0.21131383325502692    
 -0.12571226701689930E-01  0.53944685450745167    
  0.16842081783533264     -0.32834900931666473E-01
  0.67402610018253406      0.47011316363809930    
  0.63840750060027082E-01  0.14632499417771901E-02
  0.13936792857645447     -0.27361333644410724    
 -0.56498258641071886     -0.66824417117923118    
  0.77603164978807218E-01  0.36079444139021777    
  0.11471759751870321E-01 -0.60251522115678982E-01
 -0.51747799642783665      0.52283805693322360E-01
 -0.20667944825742808E-01 -0.29987666110362293    
  0.10098670587818313     -0.30981889886744429    
  0.56114308654922118      0.46697122247064460    
  0.58648476058438814      0.83624459932799544E-02
 -0.13958355484984980      0.30816222600381016    
 -0.15480002493492773      0.24153351095588860    
  0.41503774251429248      0.53568680815682312    
  0.42946458793692427      0.10943409808008266    
 -0.40527529224409736      0.51283284603587054    
 -0.49443242167592877      0.60146060162066431E-01
 -0.31039764638823802      0.17863674976912966    
  0.14175882057818959     -0.28310113892069633    
  0.32255626675049148      0.40622434289917930    
  0.53200063238805696E-01 -0.54917905476489726    
 -0.16033948870756581     -0.54823424499580420    
 -0.58055274896102826      0.76817566857239977E-01
 -0.35986006458537584E-01  0.35016780078034898    
 -0.40683349474965202     -0.27834369664765402    
  0.52137491890758170      0.13536828931534320    
  0.60026047668833016     -0.93517398102158505E-02
  0.22667753868902116     -0.35832730795884637    
 -0.29202533595165631     -0.34528777587717296    
  0.45903676006557831      0.21119078297569613    
 -0.38346864258349272     -0.37070426420379371    
  0.91801141837538847E-01 -0.72790517717752315E-01
  0.20413787061470254     -0.81018320936743682    
  0.59439359177941062E-01  0.14216158570281551E-01
 -0.29213363814811844     -0.23810805825689485    
  0.35237055256147481     -0.77691147165257324    
 -0.76152147541426463E-02  0.35548576042162339    
  0.20140388298828693E-01 -0.58071476290089720E-01
 -0.26574089241376175     -0.41695464266739035    
 -0.28933943204411361      0.19377628849324630    
 -0.17036953411537281      0.26904009532469153    
  0.49279660349026411      0.53852316912169096    
  0.14796256256895488      0.55419339841525339    
  0.30655966563101078     -0.20801986510964474    
  0.20000312341114357     -0.18464338401487046    
  0.33854602155343544      0.58738218139011777    
 -0.19013845026102522      0.46832783162336450    
 -0.30227380047741376     -0.66191352420172891E-01
  0.24953603469299648      0.72880981781074439    
 -0.96343642483373848E-01  0.21459633192210961    
  0.36244851623467017      0.30697632034916117    
  0.55269597232892986     -0.67950689593880753    
  0.38358584388143636E-01  0.31188048900500823E-01
 -0.50459463027307902E-01  0.46945921736341413E-01
 -0.24283613621999744      0.37943899707157758    
 -0.19415358471252536     -0.18589186226129784    
  0.11274267110512311     -0.18406980804227649    
  0.16134828748621838     -0.80757624131718220    
  0.42569360769403786     -0.36708940940724899    
  0.17310591584960280      0.18662727008368349    
 -0.14911958048881291E-02  0.59793738273862496    
  0.11127561912784473     -0.49932085984357255    
 -0.34435018772510939     -0.21236113771962170    
 -0.47615601284505932      0.60054137430311605    
  0.37068204283785455      0.32688971503364095    
  0.12612368880180209E-01  0.67305795112611866E-01
 -0.44081736731059584     -0.22558224624442988    
  0.26413560802364067     -0.57956486964063358    
  0.54565595810317657      0.21863992352687578    
  0.59633949613997456E-01 -0.54399070939390795E-02
  0.21188514437361058     -0.44191787887604861    
 -0.51701970377762696E-03  0.42714329195471176E-02
  0.20992314396788078     -0.42818489754569106    
 -0.35435958045133070      0.63781973656958146    
 -0.35676904533068693      0.47291385735044839    
  0.60101394940480404E-01 -0.57721412939097064E-01
 -0.26429253005925618      0.33605583203501943    
 -0.44248253541766747      0.51337075763501883    
  0.34629335479288037      0.17327226318462979    
 -0.15201015080587391      0.87542189957627248    
 -0.65355116201348012E-01 -0.22760845958859841    
 -0.22671424557648846E-01 -0.63215120421900445E-01
 -0.26612912974552688     -0.44683384939164722    
  0.30509642842292756E-01  0.39158552277736861E-01
  0.42709906171711820     -0.73555963501078081    
 -0.58242694421501505E-01  0.14027479658400996E-01
  0.41644510227300124     -0.27843892603274772    
 -0.17146497687926215     -0.25589464457106159    
 -0.28517624211475950     -0.20074327420523125    
  0.25034401720784061     -0.68546878534993305    
 -0.55254758626648182      0.15267232476629397    
  0.20608654064694371      0.26591579798728299    
  0.22397421177093269      0.22062120022662179    
  0.35771352279001895     -0.57567553916404335    
  0.36107165517935269     -0.33156994842562809    
  0.42511553114065148      0.32535742674682222    
  0.46701091054655038E-01 -0.94863137391459018E-01
 -0.66197693720784900      0.15399508769511594    
 -0.23299129367215360     -0.45867542629626468    
  0.37863155100247825     -0.24615553792442732    
 -0.37238624496457970E-01  0.12313180068102361    
  0.37871969109506215E-01 -0.71651592346711923    
  0.36694726005068684     -0.23909213583970382    
 -0.30779603378361248     -0.42446928519134197    
  0.53674710015147509E-01 -0.71992789432663162    
 -0.49855309479684522E-02 -0.10986393126731972    
 -0.52894514673828075      0.15304322975847712    
  0.23394988577121756      0.42405165751609175    
  0.17609874844758441     -0.64813881309147126    
  0.83878945512512723E-01 -0.64125474905719654E-01
  0.51868859423289948     -0.82116958253604225E-01
 -0.87881885792185935E-01 -0.24911903633193339    
  0.78886897906961695      0.12670331414534533    
 -0.12585317273225302     -0.15113246706267290E-01
 -0.34647019960190678E-01 -0.53643011703546428    
 -0.30744253493177071      0.61769349071447821E-01
 -0.14694823549184705      0.52562936344805444    
 -0.15697301067912084      0.53868860305427857    
  0.43811436244277407      0.24242117729223640E-01
  0.22418006177764467E-02 -0.27681575163144673    
 -0.23225006116343150     -0.92103058024036843E-01
  0.74807544353883970      0.32984269841007935    
 -0.42450077382264378      0.25005695170982645    
 -0.53093000229566367     -0.68801269011385779    
  0.30033076852279475E-01 -0.20662586969209695E-01
 -0.15195265353200926E-01  0.21509545219624795E-01
 -0.33725477563534972E-01 -0.48842345521631247    
 -0.55679877038350112     -0.63704391949257547E-01
 -0.41921042639217981     -0.47018782374849177    
  0.20885391251423829     -0.76079381791034142E-01
 -0.21736252848721896     -0.51322674919019173    
  0.46835512322337569     -0.96025676541981575E-01
  0.17638322494874958     -0.15331554808645834    
 -0.22439854749963228     -0.59649222599466079    
  0.45763141232947463     -0.72469335452665540E-01
  0.27818001857130376E-01  0.49648481536783545    
 -0.98777232226319914E-01 -0.28241547946931383    
 -0.65734700520526235      0.12818011876933863    
 -0.32762795828518598      0.35726539505141153    
  0.29941992935698164      0.34701025997306184    
  0.55394495842411767E-01 -0.67526686180691775    
  0.30223574515043089      0.67473056512170754E-01
  0.39490100382223919      0.84781542129939297E-01
 -0.51222804941560529      0.72568772730576325    
  0.19328005815457569     -0.69112114630878130E-01
 -0.70057432698419048E-01  0.28693657463903923E-01
  0.22305027892999940      0.51887766183836992    
  0.33802372009488102      0.10895096966899886E-01
  0.33235487867351887      0.53327950714451844E-02
  0.17062490823847762     -0.65347895393573530    
 -0.52134414591268818      0.76581743064032648E-01
  0.21067015857189481E-01  0.29411172200311292    
 -0.10208675087717861      0.29513181390255916    
 -0.65853419421168158     -0.32279748565776917    
  0.35657185456206553     -0.33626159919721116    
  0.68565183248356282E-01 -0.70528723328410758E-01
  0.17402399804741853      0.84827429907499052    
  0.89747066163591294E-02 -0.13228021199804027E-01
 -0.41036723799296376     -0.11392149156207042    
 -0.74903077240522017E-01  0.74371837447279721    
 -0.50324102508587887     -0.20067440101532909E-01
  0.68697366760608836E-01 -0.38981695091202244E-01
 -0.16476327046067044      0.56891621227854094    
  0.38252247384581231E-02  0.73691194104950924E-01
  0.70831575654085821E-01 -0.42777287130996894    
 -0.58866768538355124E-01  0.67251047999586311    
 -0.45802961829292360     -0.20295932114789719    
 -0.18421414957081245E-01 -0.56104002745737395E-01
  0.41117513400156819      0.19677804448978836    
  0.70286087382145979      0.20911570364037821    
  0.45968348224857553     -0.74266484563961066E-01
  0.89724478959298193E-01  0.65137546337031704    
  0.59073733038638265     -0.39772400649285666E-01
 -0.65895106044281671E-02  0.15467708216758663E-01
  0.24287753860935904      0.50902031446787299    
 -0.45475636968322636      0.20280202217944102    
  0.15088075139566920     -0.63465147578055292    
 -0.37098020281367268E-02  0.91736280975995038E-01
  0.58947397982179572E-01 -0.49597467894471192    
 -0.52211253552093151     -0.11732000503959111    
 -0.12072852923053240E-01 -0.13335559064080360    
 -0.18124397115397323     -0.64295411529417446    
  0.77058693453576049E-01  0.43224279031986323    
 -0.49480475407130953      0.11752768433512556E-01
 -0.39287767292517295      0.63038279274638576    
  0.74080366370451678E-01 -0.70957901652277361E-01
 -0.36241077389611820     -0.32913477749799125    
 -0.33481226651870799      0.32959577465899348    
  0.68350816169799988E-01 -0.10764314658926468E-01
  0.69132878379322871      0.23848041613249871    
  0.50284032892373220     -0.16816862495241813    
  0.23769930541391308E-01 -0.29569124087610893    
  0.75482119575038220     -0.19630512718125312    
 -0.64142685691905271E-02  0.15013565301995233    
 -0.73709761570561139E-01 -0.50736784434845472    
 -0.26014898013154841     -0.63025842366325982E-01
 -0.94684973204336387E-01  0.43131381253027190    
 -0.28616434357336179      0.62338440174427490    
  0.19763147389153707      0.42113346826306863    
 -0.88405639765054300      0.38869249500595004E-01
  0.11592508080701953E-01  0.17250879932019257E-01
 -0.85217884992380699E-03 -0.94426872108869797E-02
 -0.44419709716494893     -0.20565261988681427    
 -0.17703989789401556      0.16106605344335570    
  0.43536700822425822      0.82073135105465267E-01
 -0.50624282408874555     -0.50054801117200731    
  0.13271666991841067E-01 -0.56576423393956865    
  0.63878071436238160      0.29893425696948200    
  0.21027382084622795     -0.37127099421821530    
  0.60744622936433675E-02  0.15429628822807562E-01
 -0.94114647274511021E-01 -0.49232938734081921    
 -0.67840952268183471E-01 -0.63248094014548714E-01
 -0.61105568891729189E-01  0.52028301126672094    
  0.18267338917337472     -0.65753602323632721    
  0.24379736767194771      0.39052637360761222    
  0.66465815058286359     -0.20227041602873885    
  0.20741765026722006      0.51211514699742688    
 -0.22097283894524124E-02  0.89066475353041796E-02
 -0.43064066632020909     -0.17632218670218694    
 -0.10334406423581119      0.25120087942018740E-01
  0.35941393905291075      0.33023034649240912    
  0.46919675361011354      0.56015358039430496    
  0.34398623844597472E-01  0.31688318401348636    
  0.90885518857724912     -0.86767810851766339E-01
 -0.21122557801582542      0.13995270098620829    
  0.12560123319933935E-01  0.22239953777186201E-01
  0.23860939704757733     -0.49790540426282170    
  0.26437877876829485      0.15716962433791848    
  0.34313513660559286      0.71685942734481117E-01
  0.55204625145630216E-01 -0.68893336947225214    
 -0.45174446202665586E-01  0.54190462688737495    
  0.34132906857171706E-01  0.45952206000562962E-01
  0.81871289786943346     -0.17504692179598685    
  0.69760599266719264E-02  0.64097442526152015E-02
 -0.25502058708254338     -0.48251496489326984    
  0.24095160800985632     -0.10257107657275402    
  0.24360956052374771     -0.22943092287851502    
  0.54765104065429582      0.47080726097321318    
 -0.52957388504634173      0.27718073590119607    
  0.67929305876873805E-01  0.28704735476064458    
  0.46561559506137669E-01  0.34334444192759284    
 -0.64799466766082836     -0.12554398236123246    
  0.15964517967466596     -0.34865336398710634    
  0.62103927215859955      0.64542153349408049    
  0.12895081484617724E-01 -0.22014153251911286    
 -0.40198367105085932E-01 -0.21237437267984716E-01
 -0.48462340706571505      0.80178254669562327E-01
  0.21561477067797357E-01  0.30307089162192724    
 -0.97119387133999369E-01  0.31070096890517951    
  0.65390507628155581      0.36446621508394639    
  0.36165757553724870     -0.35155652058807652    
  0.97135349640744911E-01 -0.94755228220849849E-01
  0.19417802653591723      0.82924403192434459    
 -0.30306432012104745E-01  0.30475090987210754E-01
  0.22389096062550978      0.52100903176755975    
 -0.29507556931174180E-01  0.40953496899817622E-01
 -0.56348316973529544E-01 -0.41235796006382258    
 -0.79600978403861405E-01 -0.70450266566269837    
  0.13304264578674929     -0.46362600380368824    
  0.55868148754707203      0.41769019420854442    
  0.35315849689312717     -0.37558754715588849    
  0.46146481100636370E-01 -0.11333160595766612    
 -0.38956658357444846      0.23980504034429059    
  0.24605823392017440      0.66424824878990563    
 -0.50020924779476550      0.19626025774846662    
 -0.12754888305001906E-01  0.84238685093141683E-02
  0.15875267916498834     -0.45967599024905048    
 -0.13883754418605884E-01 -0.94333785955630300E-01
 -0.34141244236336238      0.39459981536798550    
  0.42838307208874876     -0.54646173012925203    
 -0.63909575240401850      0.10122240834371617    
 -0.12451411641012480      0.32334337780464756    
  0.10969361296943576E-01  0.28634024290322702    
 -0.57096813901101862      0.23052171436521560    
 -0.64628504873154510E-01  0.49768540462834465    
  0.24098069676863207      0.13443277028181150    
  0.22516145126207399      0.36179615175818393E-01
 -0.10826125966169034     -0.77991113878748641    
  0.20348967541050866     -0.27562083694656370    
  0.44780912314168508      0.76499968109991234    
 -0.27263362670295538     -0.14832145010077716    
 -0.22686203082108475E-01 -0.49570768425069526E-02
 -0.35115481706547297E-01  0.45916777638760659    
 -0.87064995913802901E-01 -0.10229170317472482    
 -0.87258040391057101     -0.90318250980662207E-01
  0.16857150442783554E-01 -0.70596565023008651E-02
  0.18393777496963468     -0.38901846700314680    
 -0.20690968699503864     -0.54572762073985381    
 -0.39025257045316014     -0.17529315011794400    
  0.38093562049693735      0.38218394585856147    
 -0.30385148570655235     -0.14073009417675103    
 -0.12856844069690551     -0.62450445577900093    
  0.27213981296954498     -0.26442639656001893    
 -0.31442897202419584     -0.48835098090088513    
  0.59828891113432292     -0.53746202384016117E-01
 -0.28089769217734323     -0.21306152112054516    
  0.10790318392069814      0.61678184517090573    
 -0.34487542164781848     -0.62136955194425345E-01
 -0.57306619175988738      0.11600735710069950    
  0.19086474091022085     -0.30348972236748195    
  0.75388300863533236E-01  0.52464036085291121    
 -0.10612047046222450      0.48724697398837363    
  0.91733734793474339E-01 -0.55497423177849159    
  0.25582809788319078E-01 -0.61785312851194082E-01
  0.21917498919955650E-01  0.49557568512006595    
 -0.59476323090115434E-01  0.65536520312912516    
 -0.38117363125409770     -0.23664876424125278    
 -0.23486275931878986      0.72147745964180288    
 -0.44471404616257937     -0.14743233862564703    
 -0.23467116695240542E-01  0.54370965052308443E-01
  0.18017690068487346     -0.44526714921693433    
  0.66603584716350972E-02 -0.21906314077532643E-01
 -0.19296706480929493      0.41218894644936666    
  0.31158123445223879     -0.68156461320805750    
  0.58611837024928420E-01  0.49812714444280926    
 -0.63181851398629851      0.14184136521445523    
  0.60762148739035460E-01  0.56884921713615122    
  0.36340304560641468E-01  0.22766307050182018E-01
  0.53068105565470824      0.10135228693489373    
 -0.14800909709668894      0.35912076709364782    
  0.46861806778070426E-01  0.26151614200497070    
 -0.68981486548045023      0.10392132995435888    
  0.35023642025974550      0.34970829565621989E-01
  0.14827847068222921     -0.86587963344380037    
  0.83425005912020483E-01  0.28977639872728284    
 -0.79820354525823076E-01  0.84119347685889037E-01
 -0.38365248581531564E-01  0.52245878597479700    
  0.81748545365565473E-01  0.31455082372312024E-01
  0.82201639912967595     -0.20118640076995795    
  0.29940513991306719E-01  0.28448464134817813E-01
 -0.29385466411988442     -0.47268507818568828    
  0.21714650676782268     -0.15022211907758334    
  0.24505025477705189     -0.24949274539827559    
 -0.56248782835291600     -0.42639201253787973    
 -0.11208783872687765     -0.22249059845742655    
  0.25880506694641714      0.68972699337473720    
  0.57626547054808415E-01  0.56329496966444503    
  0.18905298550200014      0.19714915378654926    
 -0.50103031216798510     -0.14205594029523400E-02
  0.21800903839875263E-01 -0.45562519439623683    
 -0.36699810686293127      0.19459943075113498    
  0.34516083671509273      0.49920382513707423    
  0.29610666021154364     -0.56490650863805958    
  0.14090805707400966     -0.28219872002413782    
 -0.32252781918237344      0.22391390694731753    
  0.29968171057787352     -0.49973945673646686    
 -0.17659072346179305      0.49891688383075572    
  0.36976873840579738      0.11404778262821628    
 -0.57794265928451405      0.13653592949778770    
 -0.28766737306856005     -0.36708248091998807    
 -0.37087348409138737      0.41559207471855036    
 -0.31561974730392850     -0.17216559222578909    
 -0.14233261691240559     -0.23643848346894730    
 -0.63231696235427448      0.29067645073385157    
  0.30244792474229770      0.47457427079108627    
 -0.22492113266241576      0.19851222807848207    
 -0.27427278532016042      0.64898232403495473E-01
 -0.96336250399500944E-01 -0.71034490160058672    
 -0.41050870181208976      0.30041597861456298    
  0.12011959339040529      0.85679873827385677E-01
  0.24148458775686946      0.81306148407993772    
 -0.63238445480802430E-02 -0.62700881979934203E-02
  0.13936986282429298     -0.30797643971118677    
 -0.84172276193674023     -0.22467665186385927    
  0.23767587857466999      0.26177723752606419    
  0.38525140517140427E-01 -0.15761226764058060E-01
  0.58058180415976468      0.57751935115028475E-02
  0.57009202793051182E-01  0.51766946969762924E-01
  0.40774753449043033      0.26169447287782538    
 -0.54913680693470723      0.34737338422589986    
  0.69628375750306573E-01 -0.61664014039170922    
  0.25448943398662605E-01 -0.37473344262323488E-01
 -0.54354058161456131     -0.13987351876199844    
 -0.51616076022553570     -0.17729080852767026    
  0.50205204202848719      0.13733081369133379    
  0.34497558921769367E-01 -0.60222643865711911E-02
 -0.63356944268374771      0.21936205034391043    
  0.39241470892674135      0.35261649684928514    
  0.82929093326427228E-01  0.22366386664581239E-02
 -0.88956240502407491     -0.44662132962488665    
  0.16395071887445906E-01 -0.21406532964047244E-01
 -0.25080148464100616E-01  0.31142038094815139E-01
 -0.40112742443937796E-01 -0.54126168956314524    
  0.19763597009892561     -0.60452862526504600E-01
  0.70215621715240506      0.40470489772551682    
  0.75238079487520940E-01 -0.15557953159621482E-01
 -0.26790054718218265     -0.55135320864558901    
 -0.28120745918272483      0.75101279247139524E-01
 -0.28536187708123006     -0.46989818290753271E-01
 -0.26602643252431063      0.62057359932179523    
  0.50275859143910673     -0.91914665434368825E-01
 -0.41388090251313299E-01 -0.30212895338680978    
  0.73092963556664836E-01 -0.32041391803946362    
  0.60102442216388074      0.42018162536059411    
  0.76465029667154377E-01  0.25020847246012845    
 -0.88290394827684782      0.73059646003610923E-02
  0.32435742929445488      0.21525739574629982    
 -0.16430279658496916E-01  0.12752179968138821E-01
 -0.50439248605566234      0.32132077197724068    
  0.54562800455793947     -0.61592347675121201E-01
 -0.40481107454592380      0.16699303177489122    
  0.36144766844282566     -0.13577388960097331    
  0.10965286913843134     -0.46554497891979618    
  0.38077088291143202     -0.40563528877168475    
  0.11403947562626046     -0.45266875187830202    
  0.76586521967993954E-01 -0.48778906491116669    
  0.45909085873917704      0.21290263970133083    
  0.25832576729319467      0.37304314687036544    
 -0.51459311592199575     -0.20527405039045724    
 -0.43407401025180686     -0.20652094533404686    
  0.37124440098465522      0.14025315171749184    
 -0.22162196081683402     -0.36600590922700604    
 -0.41657555919658285     -0.33143417611567222    
  0.49042629564686535      0.36814164120096893    
  0.40969299635459766      0.33892892586014112    
  0.77986571612402411E-01 -0.11482108552922843    
  0.12437373559876824     -0.82261887914966447    
  0.58554893216707288E-01 -0.49129654583080572E-01
  0.40581622819333896     -0.41134677250789065    
  0.30035359117465782      0.23543185705411424    
  0.25119258485890811      0.30980049664908818E-01
  0.68786840099586410E-01  0.67206954632581350    
  0.29641106074909501      0.39724523024201663    
 -0.26392472089471042      0.21386424801754250    
 -0.15058563987129742      0.28101642467263543    
  0.72906519781512913      0.75896025585344612E-01
  0.35317887076127108     -0.11396161195294008    
 -0.32331486848694801     -0.78432588562049788    
  0.28320213407620948      0.24884163795044159    
 -0.79371439808463562E-02  0.19728898398513658E-01
 -0.30002014674327154     -0.53088608032927498    
 -0.26157674166760048      0.10920213407022901    
 -0.32791134727872945      0.46932807747046251E-01
 -0.74899919936446624E-01  0.65761831275457450    
 -0.78791195783652984E-01  0.54789613382984770    
 -0.16163010609651368      0.60566665701602677E-01
 -0.63710193810322713     -0.50519840457890786    
 -0.18936163809906731E-01  0.48231483353815163E-01
 -0.92296677646647507E-01 -0.48008716202153751    
 -0.31673884625546689      0.39391366041841236E-01
 -0.30710298879885101     -0.89241947326663310E-01
  0.32440144164782880     -0.67201919427690271    
  0.27178343532286020     -0.94239374486738525E-01
  0.25294361402391885E-01  0.88732457915773222    
  0.19910132698884297     -0.29534631038546066    
  0.34340897342315525E-01  0.34898601504244439E-01
 -0.51418270192521676      0.24965830868432246    
  0.47600824400376301E-01  0.28638421755107495E-01
 -0.40194227118442455      0.67766786196447673E-01
 -0.70868755847444764      0.42578140504106368E-01
  0.15878635861376728      0.54448130491585733    
  0.43068063952219682E-01 -0.30566406022393522E-01
  0.30960542976841976E-02  0.42403153801458371    
  0.74993299790706736E-01 -0.70007250467995219    
 -0.24650133986294909     -0.37009346011561595    
  0.66362897130987786     -0.26696825595621987    
  0.21618799347716106      0.49366991269748389    
  0.74183003686289634E-02  0.94971874009165125E-02
  0.34083106288143500     -0.19420603919962565    
 -0.12014006304667085     -0.68411676123823495    
 -0.59789469610336998      0.78182118707035064E-01
 -0.52645735798313165E-02 -0.71130941590177126E-02
 -0.14165618844290392     -0.64161402858806971    
  0.32981892484824815      0.10260516586583179    
  0.30256319035200063     -0.30170502128259082E-01
 -0.26176551160115591     -0.53663832599427674    
 -0.27294240775504963     -0.46130338118661834    
 -0.92413212453590798E-01 -0.13022271859739476E-01
 -0.69437948285180384      0.45158540028759114    
  0.41387940549356857E-01  0.12722676437341324    
  0.27281192988607217      0.18430334884882185    
  0.75247652879959093     -0.47663342362840388    
 -0.14325287566664086      0.27811702164766372    
  0.16395109560993631E-02 -0.18232594105800554E-01
 -0.33265227699473493      0.24882721771271279    
 -0.90010789356262694E-01 -0.26547991681981598    
 -0.26409555516411554     -0.23202605524495248    
  0.43195291028681893     -0.66232928413678471    
  0.13315194902584121     -0.13457681145469796    
  0.62731779821987232     -0.32365482509718019    
  0.35971359987605644     -0.38914910126279739    
  0.25317974475151223     -0.34777678820662550    
 -0.91579615678076376E-01  0.70698980000995393    
  0.12736112615567866     -0.16013859183950205    
 -0.38349451198251133      0.24415008017982495    
  0.35835245286569589     -0.33885039290928792    
 -0.45699973840359981E-01 -0.54129066863632580    
  0.43401009282172964      0.80441845357049735E-01
 -0.49651437356616662      0.46151698302723210    
 -0.98832075914691980E-01 -0.20196050423953438    
  0.36932415397065632     -0.15637720644497899    
 -0.51259153437971397E-01 -0.51224169803829156    
 -0.14243898673908592      0.18077191970664813    
  0.45022361647306497      0.56432094046758863    
  0.18004767894025833     -0.56428946265676527    
  0.40939012746132075      0.20013029614448558    
 -0.59514527225393199     -0.61019292234955155E-01
  0.28717699550730208     -0.33405806163424132E-01
 -0.33308613366501566      0.39342691507107108    
  0.37621872363315501      0.47117878150908604    
 -0.69185141937875755E-01  0.25893268942285436    
  0.91548361394290734E-01  0.53898524461297614    
  0.26804567457321715     -0.39197932405316094    
  0.32236432962864464      0.34055171742434953    
  0.60376686363314869      0.27204636038168384    
 -0.33394588245832674     -0.67423974746511878E-01
  0.29041811557947578E-01  0.39634508290045306    
  0.45588076308428566      0.32804154277593200E-01
 -0.26132859903502981     -0.25181291642861081    
 -0.55796330364294744     -0.43604854774192559    
 -0.39509758231151026     -0.43766423821612321    
 -0.63661403533448277E-01  0.23393004149104583E-02
 -0.58190967739142530      0.55610001887231220    
 -0.19434359578421663E-01  0.67727725650948509E-02
 -0.25846983564271821E-01  0.58948893850216122    
 -0.32436589935554977     -0.15377313751913338    
 -0.39353809944585033     -0.40543300688916026E-02
 -0.23358439209761883     -0.55993300384745848    
  0.18786008998332088     -0.27896093815708028    
 -0.49781477682319630     -0.73508805355827989    
  0.27641314935539046      0.14920549427028801    
 -0.38019432333196851E-02 -0.58668251205893918E-02
  0.30032037420217766      0.31761563921754321    
 -0.26773483151864252      0.85008237074782889E-01
 -0.23525715435163513      0.20792495215828866    
  0.73121446410244273      0.31107287131529138    
  0.60334173819917958     -0.33633879056956806    
 -0.87294264317411482E-01  0.54275537182616705E-01
  0.44760594359833861     -0.14679289282392896    
  0.52506663516824248     -0.12122143742232795    
 -0.13183392527055734     -0.55550730316550623    
  0.24250489885860760E-01  0.38441090544525575E-01
 -0.95578719180891336E-01 -0.72154174604227170E-01
  0.43959115970101381E-01  0.80974794116789006    
  0.89650198598786202E-01  0.67618942257898815E-01
  0.88646671941656519      0.44731652959581580    
  0.25191897090841298E-01  0.35467729357162373E-02
  0.24455762645133300E-01  0.15162541095115518E-01
 -0.36065383005173934     -0.23282128895500079    
  0.38049006714022088E-01  0.22415584150430306E-02
  0.71167013144109070      0.50659417894017822    
 -0.21192325097691811     -0.79036753198825596E-01
  0.66700487830384347E-01  0.55854654034024454    
 -0.10843263519811680      0.42294411047979902E-01
 -0.81571059595710727     -0.66685296994705906E-01
  0.14120107304330512E-01  0.52056985338127940E-03
  0.25059422062376568      0.54918756029014337    
  0.22603053851102325     -0.21516815108114679    
  0.36522962712515378     -0.90564447317644389E-01
  0.16618211301983651     -0.60745150283590366    
 -0.71564376087561138E-01  0.26243036630054756    
 -0.90813116573372865      0.32184114414861742E-01
  0.28520670009453386      0.13678608695477956    
  0.87178864723214955E-02  0.11895991477362495E-01
  0.46265956246288564      0.17642941815317859    
  0.33917979806333876E-01 -0.24935506429010151    
  0.16796187096085241     -0.24558137083300052    
  0.36077220080048300      0.68761357720976402    
 -0.33260909913684134      0.43839495048414573    
 -0.33474008803561012     -0.17530331783415409    
 -0.33935674818950956      0.10826946543482667E-01
 -0.63251759465239019E-01 -0.65963464462607657    
  0.35916954617568270      0.46008012208950821    
  0.69065211454699876E-01 -0.13169546813551267    
  0.32919320143577135     -0.72480419516090866    
  0.12480697549420664E-01 -0.57833948435493894E-01
 -0.39552590672957011      0.31895707558134484    
 -0.18637537391606709     -0.21887990585251357    
 -0.27997878228230977     -0.15948660216136751    
 -0.18090567317551426      0.72293187125042435    
  0.13375978477664471      0.28361687879654385    
  0.78098899620443107     -0.37751306610072588    
 -0.27813350743377585      0.26425015939015989    
 -0.38129322781539382E-01 -0.23866688461476930E-01
 -0.47971670214612883      0.18818477396957436    
  0.19207909806816487      0.50418734202896276    
  0.55807095942299523     -0.13145571619844701    
 -0.25903366512231235     -0.21802953931040012    
 -0.17305976895454206     -0.50608618619700663    
  0.47127783118521749     -0.22866534844526079    
 -0.12014318025759221      0.28738103946929922    
 -0.58366476482036445      0.43007551221386192E-01
  0.17090924971834648     -0.38174625969846587    
 -0.15547902728621182      0.52449432203461788    
  0.95831724945311669E-02 -0.23385506193235117    
 -0.11799351516622561      0.67608379879035496    
  0.27549400992793288     -0.44446410102369643    
  0.14197938257673157     -0.33924024175731998    
  0.63552300959458696     -0.33997710277014598    
  0.24503146265411496     -0.10861990088391350    
  0.42115834359963117      0.47810359775808819    
  0.14728857958467398     -0.30820941752994818    
  0.27905952685633389     -0.18462088978821811    
  0.94956143328203763E-01  0.59697560005893591    
  0.79886769700293916E-01 -0.54346812172716252    
  0.12654445449820784     -0.25300762941398325E-01
  0.76656700396180999      0.29875210498546984    
 -0.63822999000460665E-03  0.68765383659082163E-01
  0.27287691246233092      0.84880554212016346E-01
  0.46541862895921410E-01  0.89777267772755476    
  0.16355793911159416     -0.28765674315554490    
  0.69661094505308607E-02  0.25008564045046006E-01
  0.11191276682200141     -0.44509787564570535    
 -0.24186107438719284      0.83457801243837226E-03
 -0.26188399962445785     -0.18188536263179703    
 -0.61454011890872895      0.50153849876791978    
 -0.51492446812123649      0.21317367588342670    
  0.88552067749130448E-03  0.79173948569686379E-02
 -0.37403711939020418      0.19946775197128366    
 -0.62750117835060604      0.34043711190559039    
  0.51735521084911015E-01  0.55691692835027906    
  0.31853842117427818E-01 -0.19071664261579024E-01
  0.78175408222126180E-01  0.43580192851412342    
 -0.13415483937739486     -0.68684520735309396    
 -0.39476508652915121      0.47980236004906807E-01
  0.16081788846669892      0.71767713229792496    
  0.53786382064901239     -0.10714075660324245    
 -0.95835856035049460E-02 -0.81906980529904694E-02
 -0.46831146668857897E-01  0.46501829418593499    
 -0.67639798669071860      0.11001781807547406E-01
 -0.18110858799570144E-02 -0.56876552512765921    
  0.49142025976441142E-02 -0.20196588298681317E-01
  0.46791527234631475      0.12369880358361512    
 -0.53554184892553848E-01  0.32960353030071382    
  0.77187313709217176     -0.12631706996938102    
  0.24446408192309158E-01 -0.20470856647241448    
  0.16823533665404505     -0.49663903958094668    
  0.30990922308895252      0.12158329359149447    
 -0.14123826587973384      0.44758003179578981    
  0.23658870487651623     -0.58135184195345846    
  0.40659839079089599      0.19626716797960156    
 -0.14674596645160401      0.21462225706839078    
 -0.37498392096704392      0.15899763403574660    
 -0.73119321320903219     -0.16740117032100554    
 -0.18176348113928563E-01 -0.53537557612468001    
 -0.84259976955292548      0.97864553366569795E-02
  0.19491033709149220E-01 -0.41311456655145601E-01
  0.58658181870662740E-02 -0.29180846983633803E-01
 -0.16902723059299005      0.34877486426301257    
 -0.68398697618446136     -0.36805821670735156    
 -0.28467390765282513      0.39901379381837931    
  0.72439351704229202E-01 -0.31339334224422401E-01
 -0.52373731498022436E-01  0.55206652434241987    
 -0.84434654676969562E-01  0.69055135321045763E-01
  0.60763150059858259E-01 -0.46797415478336757    
 -0.12219394954842749      0.66555119342405167    
 -0.46319947311320081     -0.15667038455970542    
 -0.13000292965898878E-01  0.44722597376934958E-02
  0.45226586892768916      0.14382563028830600    
  0.67784972309002633      0.27568306942435639    
  0.11033220758089256      0.53943755616913514    
  0.59159173717874736     -0.18608425692971975    
  0.15958376617076914      0.53512576292301406    
 -0.13399034755641553E-01  0.14822216021079901E-01
  0.11169345227280293     -0.37913356051040226    
 -0.88869852525808823     -0.17814669980315622E-01
  0.21092543620342744     -0.54992523413077948E-01
 -0.64608330589782798E-01  0.44631055344206132E-01
 -0.36608975811353839      0.38138334770302174    
 -0.32160900016699290     -0.11164381327307599    
 -0.37028063364349550     -0.99461403106291452E-01
 -0.78129290152365027E-02 -0.67643697478001852    
 -0.32890126470046216     -0.38264617151473745    
  0.22599778695747413     -0.20144241992973894    
  0.15091699356501165     -0.30850532201875203    
 -0.71829606375051436     -0.14089396504694041    
 -0.17101154446054012      0.52959254552728374    
 -0.46817447637196037E-01  0.12448174442021780E-01
  0.81842648534833473     -0.13308861631083643    
  0.10453791015913885E-01 -0.17209981847410460E-01
 -0.36514674569748401     -0.30224038897962530    
  0.23818437619368921     -0.47591618299730676    
 -0.31909547496198176     -0.46100098259428673    
  0.96470459242350939E-01  0.41041468476887932    
 -0.35039023553459647      0.37124229747141801    
  0.44690559178753297      0.25935516636742489    
 -0.24292373550383434     -0.33365193280357824    
 -0.61418762577839958E-01 -0.54617608075273716    
 -0.28141577093277959     -0.33788506501194404    
 -0.37352289931715377      0.36200168343692463    
 -0.39844769400225116      0.52974996150618681E-01
 -0.61119821796578666      0.30726126819078936E-01
 -0.19967093964958610      0.53056083850748992    
 -0.40756732235647802     -0.11448398153352977    
  0.40714622425466412     -0.43357312575099788    
 -0.31205745975283533      0.21973949744042523    
 -0.29843779515672360E-01  0.54389513217995111    
 -0.55000323319332543E-01  0.50888586089366888E-01
 -0.52680745478375139E-01 -0.51120377718410825    
 -0.76605479440287373E-02 -0.65841438586160050    
  0.27721539252496957     -0.33452668739532609    
  0.59257734430161979      0.46483302020186756    
  0.33170626305732676     -0.36278613995942982    
  0.11343750343085782E-01 -0.47480174262759765E-01
 -0.14988921611090356      0.45709312615187014    
  0.15274534709415047E-01  0.34425013871293125E-01
  0.15289186559039600     -0.42748864220214622    
 -0.24371497418712865      0.70828049070206878    
  0.52333468005570583     -0.96181417914650388E-01
 -0.21189930526018275     -0.61712880505666701    
  0.50379675189708428     -0.18525382574410104    
 -0.46295858800867597E-01 -0.29106978227142553E-01
 -0.52164459650455353     -0.50373223654294003E-01
 -0.80021232530709765E-01  0.37648720419334419    
  0.67291791581642987E-01  0.24803478612679361    
 -0.70080327122201669      0.14152305607395022    
 -0.12033620651812114      0.51375568133571325    
  0.36057496053619359      0.14676660563835220    
  0.28633706556894789     -0.37364502170289526E-03
 -0.23317532010402431E-01 -0.69820254695290929    
  0.19541860905925856E-02 -0.51582150589099285    
  0.10085812254351383      0.41070206350152752E-01
  0.80237461703889457     -0.27833718360140269    
  0.26550268993557086E-01  0.91488719152003350E-02
 -0.35922534635464071      0.22760768072681919    
 -0.37489744637820938     -0.74019729173586823    
  0.30148030427669875      0.19948563160610205    
 -0.34857052633407715E-02  0.38375762260237090E-02
 -0.13538831853594505     -0.52760846598290589    
 -0.28576105257048734     -0.47862367498650499    
  0.27170683624696756      0.36489111188265788    
  0.16494527884893539      0.39797265608901278    
 -0.48968654024340363     -0.20254047730650310    
 -0.35046542072825759E-02 -0.38591215499240678    
 -0.40932967154133937      0.58083140802087985E-01
 -0.14715522763334077     -0.61454445007298508    
  0.32286376191547039     -0.30784773922536635    
 -0.24789149621218037      0.48910024728079327    
  0.99806408262794188E-02  0.55419793986481802    
  0.73069058364457734E-01 -0.43329603953786028    
 -0.40143165758607136      0.24965003938993358    
  0.45780499315360929      0.17339223472636217    
 -0.18977117694990608      0.52806947555550099    
  0.42648905227646816      0.20028435029835104    
  0.31793007499015424     -0.44362118155336971    
 -0.31715181124059261     -0.12558119620482786    
 -0.16550605845320948     -0.21380933401977747    
 -0.63117027578247953      0.33805650822087951    
 -0.24200748293600735      0.10794895798260487    
 -0.38091241391563874     -0.82124902300011660    
 -0.22672834432143213E-01  0.30515716404866650    
  0.10185844083940575      0.78899186675875463E-01
  0.38650548224412412     -0.33235844600405773    
  0.12311919532704343      0.69394615330816201E-01
  0.31041929375355509      0.78978233436889789    
 -0.50138087974327394E-03 -0.78039523117387766E-02
 -0.58739863672543702     -0.16436037389071861    
 -0.83046959945721366E-01  0.19294849178413584    
 -0.18407422409498339      0.28152933686931503    
 -0.48435835707923802     -0.48587805616518204    
 -0.43667598016986942     -0.30674213333122241    
  0.14771620927116694     -0.33552828813002850    
 -0.10876812514852348E-02 -0.37981786330784906    
 -0.65640100105355292      0.75491554778211539E-01
 -0.36148478156416086     -0.13329789631691011    
 -0.23524408683398390      0.85502616311962432    
 -0.70325246587320533E-02 -0.25149609383415661    
 -0.42476583491314036E-01 -0.68484862244625883E-02
 -0.33625916832259384     -0.38945643651341438    
  0.20474872787217174     -0.19092696965357603    
  0.13486076683693990     -0.28237809423973648    
  0.73072200036974277      0.15811024668954410    
 -0.15532809319865371      0.52717209216500782    
 -0.43688016063066215E-03 -0.28562724012648408E-01
  0.81528622848467136     -0.17268762882664185    
 -0.24775317776558933E-01  0.44947533423806245E-01
  0.24555445319642202      0.41807751476704996    
  0.50107559378436262     -0.19513899709504615    
 -0.26454862246894062     -0.27218077472431373    
  0.25608126581196516     -0.51586069903453702    
 -0.19824363530702235     -0.61349572985270606    
 -0.70283256974475988E-01 -0.33945954830801522    
 -0.35588919528417173     -0.30366501721937894    
  0.49212689381399066      0.55601148787267005E-01
 -0.33240305523839142     -0.14213226956772207    
  0.55151917881868151      0.20983124234638975    
 -0.48206751733269593     -0.49746035525932500E-01
 -0.49092367671807602      0.21268346495672841    
 -0.28659873114123319      0.36932972639406192    
 -0.31332251625484003     -0.37986569457670133    
  0.40700330929989606E-01 -0.63288372862772502    
 -0.33947672217957048      0.14678215014125953    
 -0.43864343831938113      0.46752525046220128    
 -0.30563223140668427     -0.11858698821628849    
 -0.16229733248270345     -0.26093986885959786    
 -0.61813575941714616      0.70825724063297860E-01
  0.28385322429511778      0.44707979958618504    
 -0.14814786354297310      0.19617524655915755    
 -0.19219936073840208      0.10597266258843042    
  0.89087133890419695E-01 -0.77653536050537153    
 -0.82278128705907561E-01  0.27976509548379203    
  0.89198761657096959     -0.92532517406858306E-01
 -0.30198795374036569     -0.13861840540625853    
 -0.16479350690467076E-01 -0.86180317441631252E-02
  0.43138032339201282     -0.19347323208818992    
 -0.11306714200869269     -0.12290319369586764    
 -0.20937026696830247     -0.83854127269452738    
  0.33471631414606712E-01 -0.21955104663897714E-01
 -0.22596245184080671     -0.49182264090712086    
  0.13692861600082483E-02 -0.76151496809522597E-02
  0.21987703374833334      0.33519348716467806    
  0.39931824095748392      0.62196137615693081    
 -0.32223747541439890     -0.41461502486667140    
 -0.43313328338914214      0.50697036630295722    
 -0.40909846637008346     -0.31919159762363147    
 -0.55586155036181133E-01 -0.85436205984144378E-01
 -0.63795255338727597E-01 -0.39215019395009593    
  0.70884909589173895     -0.19837612020070750    
 -0.13320538725248468     -0.53141081570759485    
 -0.12914256428712264E-01  0.45118405940842987E-02
 -0.39811298299777170      0.33906237537123907    
 -0.11229901617666302     -0.29758128557897993E-01
  0.32267123405076759     -0.40718144540805978    
 -0.43225121149096413      0.50625248495475916    
  0.29592599550690435     -0.39111104028191740    
 -0.53689408788623205     -0.18793564756923403    
 -0.15309586051617190E-01  0.96003475153900300E-01
 -0.12404416067118273     -0.64112938292911770    
 -0.33091094940835752     -0.41006370003095932    
  0.32520387832092196     -0.38528725462829883    
 -0.46867567469558502E-01  0.68118681635959222    
 -0.92787561407699642E-02  0.42938694046827167E-01
  0.34269592358066309     -0.30209274084289284    
 -0.33236649422382569     -0.34733758093772699    
  0.39794652716908380E-02 -0.10066717343176163    
 -0.12337473180571079      0.73131221641525768    
 -0.49978949126268513     -0.15269449612226865    
  0.44876141412565046E-01 -0.43485210132776542    
 -0.35880173584245190     -0.62084498876654082    
 -0.92575667802346051E-01 -0.11413674776760251    
 -0.13269862131687488     -0.21329007217677301    
  0.72530610790893812     -0.58296909338412717    
 -0.26258379272143428      0.33951746776849756E-01
 -0.17982064037492425E-01 -0.23455981413741674E-01
 -0.40452327087262707     -0.43506180378316839    
 -0.17690142584156870      0.20604195280828358    
 -0.29875816884722473      0.13213644749362749    
 -0.20918084317693594     -0.65027812516508576    
  0.37600142917322188     -0.33620080712270961    
  0.95345220489943566E-01  0.51759804158500643E-01
  0.33417635248987804      0.78857455050408432    
  0.90557209958987417E-02 -0.14713660456169009E-01
 -0.55401352742182852     -0.15047101118232739    
 -0.84328304483080041E-02  0.22020396041141566    
 -0.15681982955086318      0.25507730450811528    
  0.56719603012811692      0.45880100545723174    
  0.44466597159181143      0.31139264478057116    
  0.26844945749774946     -0.63973017193747861    
  0.42652567944209346      0.20433414438717998    
 -0.17028315316575681E-01  0.45198515879915618E-02
 -0.91113111103614391E-01 -0.52986753136599729    
  0.64079003524178127E-01 -0.49131569495895061E-01
  0.14175514564502570      0.46073283155027278    
 -0.29783496883303823     -0.61914767085921552    
  0.40007273468548188     -0.53746155815045688E-01
  0.21342974279260657      0.67616853079709083    
  0.56365642840917973     -0.12801589965268431    
  0.52084330445215238E-02 -0.13162557574884048E-01
 -0.34509543284243449     -0.36634395668779962    
  0.54467792649806543E-01 -0.80232714545061562E-01
  0.35450738317980790      0.29014136942010171    
  0.62262481509553380      0.37386904038646235    
  0.44250244543248568     -0.24656576219498952    
  0.19187839740148349      0.17182098518775024    
 -0.45275150350273674      0.11833838197152323E-01
  0.62921362134871250     -0.27572340382709176    
 -0.11488426267727245     -0.52368397153236190    
  0.20569152848975919     -0.90857289606896013E-01
  0.37268420167077276     -0.71489609852242364    
  0.96308250879051774E-01 -0.52415905382621711E-01
  0.38854008956004066     -0.12042053021314560    
 -0.48597773197793404     -0.77247097508825924    
 -0.13389591826805262E-01 -0.18996138014717154E-01
  0.32543173345521495E-01  0.71090657245921618E-02
 -0.40090334262837857     -0.36022995353790133    
  0.10483875824301089     -0.19803850416124547    
 -0.27733390801032209E-01  0.37894170408901312    
  0.39757982261320374      0.59738162398148731    
  0.57154685872161171     -0.56269757467187465    
  0.11287224091174516     -0.58534557717869612E-01
  0.84750363510208895E-02 -0.56938177155997444E-01
  0.81062148733965972E-01  0.89444039123969504E-01
 -0.81984865931741854E-01 -0.11087756602981516    
  0.86819939886597397      0.20841649136414947    
 -0.61182235470655655E-02 -0.10162468063276212E-01
  0.21748907308028156E-01  0.11398942112489263E-01
  0.74540251904219867E-01  0.21360311691879005E-01
  0.25869884038883517E-02  0.13571104524865069E-01
  0.85661931998507523      0.22774334205629104    
 -0.11187289790655933E-01  0.44089198849821543E-02
 -0.12239169622214555      0.20257755281365700E-01
 -0.10117472780006104E-01 -0.20761608516151914E-01
 -0.10837443038405628E-01  0.31185328204808016E-03
  0.86965015297332471      0.21186706580763759    
  0.86733282657325539      0.20382029256576517    
  0.44953583783406845E-01  0.12550907265192382    
  0.13593189091956920E-01 -0.46123406199342770E-02
 -0.12960993234902560E-01  0.10351129392209238E-01
 -0.63238510511994417E-01  0.20885806512477494E-01
  0.60233902814794260     -0.54837797243932052    
 -0.74894818788741796E-01 -0.24466248996314371E-01
  0.11741805139906400     -0.45583081454275323E-01
  0.69879209728194863E-02 -0.68271175783473498E-02
 -0.14336794523538560E-02  0.56471292809853829E-01
  0.85799737661716602      0.22278396663622163    
 -0.10860935100431623E-01  0.54587468207686063E-02
 -0.15562243958121405E-01  0.13298326266897309E-04
 -0.33990886272548732E-01 -0.89096158999528718E-01
 -0.11666026578247335E-01  0.30107760517063542E-02
  0.87373943690565536      0.19827821322193273    
  0.87626338332371390      0.16902060974725672    
  0.22067799763932638E-02  0.10853522784970315E-01
  0.13923113852812329E-01 -0.22300108952325592E-02
 -0.70141438980353576E-01  0.68810498039957729E-01
 -0.27734389260085507E-02 -0.10817695656471622E-01
  0.87341402465723939      0.17337837036238210    
  0.17855970923089798E-02 -0.84777866139616083E-02
  0.45557117262701188E-01  0.68670153718000893E-01
  0.53304915997903768E-02 -0.53942503742939532E-02
  0.50700775872412895E-03  0.57985794620453932E-02
  0.87132810029448238      0.16476134886628402    
 -0.49593822060442883E-01  0.13731818788490814E-01
 -0.47949100681250620E-01  0.53272109350848251E-01
 -0.50914548471829357E-01 -0.66600594617554215E-01
 -0.65604924329325576E-01  0.44172064264078589E-01
  0.69116699571296236     -0.46046636470506930    
  0.80901788367614691     -0.28163412679974531    
  0.18064292533407306     -0.14757099195874240E-01
 -0.50236832686985339E-01 -0.43274796490669953E-01
  0.10377959389579337      0.14189877763495329    
 -0.16555604788183106      0.95188450050855772E-01
  0.83040063469049996     -0.23277816791343181    
 -0.41060650013581959E-01  0.65373817081205154E-02
  0.14412356761539225     -0.30104913134825065E-01
  0.12713640713926441      0.68162721953124533E-01
 -0.45906825395798712E-01  0.10963420108589374    
  0.62249714175560134      0.50996713580113284    
 -0.10737643965156665     -0.29153607628248090E-02
 -0.30917389762042211E-01  0.15105953302413819    
 -0.15313491260971324      0.28081753360185348E-01
 -0.25909852313057126E-01  0.20936857421334970E-01
  0.86385721147443895     -0.92308660478525373E-01
  0.81880210701753575      0.68464571985439593E-02
  0.20923235356073988E-03  0.65380088075057866E-01
  0.63013740946535168E-01 -0.16265971564530329E-01
 -0.64337714956971909E-01  0.29736305747095654E-01
  0.35289436164097077E-02 -0.63879278208801085E-01
  0.89963889889435344     -0.24133573168589884E-02
  0.16907377877062174E-02 -0.11570799651835773E-01
  0.52099071236051953E-02  0.18151241627278672E-01
  0.62748894135616906E-01  0.16843611691198052E-01
  0.19962582206773868E-02  0.11295995954960683E-01
  0.88585193419418962     -0.22537386672277643E-02
 -0.10011940720294571E-01  0.43204401844841311E-02
 -0.61998930924743061E-01 -0.32719468475065072E-01
  0.59559468148735611E-02 -0.17340979136101484E-01
 -0.99784090682106530E-02 -0.50375176625489654E-02
  0.90055185592173015     -0.22696770854680470E-02
  0.88835414253247835     -0.46463682300315168E-01
  0.32388497445773323E-04  0.64305095858327999E-01
  0.80352489890924833E-02  0.24568138440636683E-02
 -0.83443975486672817E-02 -0.49293131969947446E-02
  0.33566447096680635E-01 -0.74191501300350585E-01
  0.81737691458229755      0.11546133838912283    
 -0.57078264231510134E-02 -0.64123055139907625E-01
 -0.56606007058144503E-02  0.86833513133129661E-01
  0.87247224110395677E-02 -0.44709059299913112E-02
 -0.69979577668655979E-02  0.61834017693545809E-01
  0.88712714104479806     -0.31781687730497277E-01
 -0.13700090289695266E-01  0.33566701854939041E-02
 -0.19718497953302355E-01 -0.11572553014886050E-01
  0.46908814211175598E-01 -0.44094083849814114E-01
 -0.89163493135942934E-02 -0.72210453750346931E-02
  0.89970895199442102     -0.41004451697024408E-01
  0.87035634405280071     -0.16819471776588318    
 -0.21594882199703694E-02  0.40339144759003534E-02
  0.68944186859331291E-02  0.11713729470915479E-02
 -0.29900506520930195E-01 -0.31188082841454301E-02
 -0.26949473037306687E-02 -0.93375769258121355E-02
  0.87361698819261502     -0.16449257278862114    
  0.61262888274507127E-02 -0.56001665403343989E-02
  0.17175466244822329E-01  0.54952487793269465E-01
  0.76987256464211562E-02 -0.29101948787794152E-02
 -0.31828025555790951E-02  0.11133721566274426E-01
  0.87136419900767303     -0.17108893342216519    
 -0.70794720222730367E-01  0.35921942903393012E-02
 -0.38068805953538384E-01 -0.11959802750429932    
  0.88498373754189674E-01 -0.42955363523793796E-01
 -0.25537534058913472E-01 -0.59758439779670561E-01
  0.69513349875039732      0.46516774108209336    
  0.86938709523363211     -0.21032236049913652    
  0.15335130078891313E-01  0.57849215163969479E-01
  0.91981589562434851E-02  0.39345127040427696E-02
 -0.16624852870555235E-01 -0.24263420358186464E-02
  0.57311127394435446E-03  0.25691227090833036E-01
  0.89643801653261246     -0.27639774369133618E-01
 -0.76957376062603555E-02 -0.59099887999116807E-01
 -0.36633244007894805E-02  0.79624127882586326E-01
  0.11541357218698331      0.58942797666253488E-02
  0.10522521176137944E-01  0.67419102720359003E-01
  0.78241214145908233     -0.18440799060670232    
 -0.67857470267422143E-01  0.11804619745702953E-01
 -0.70813552309611644E-02 -0.27332948352872147E-01
 -0.31501473743902886E-02  0.48515521957583685E-01
 -0.27297925574624349E-01 -0.65051119807971680E-01
  0.78362016487311537      0.43983122246853829    
  0.57154685872161171      0.56269757467187465    
 -0.81984865931741854E-01  0.11087756602981519    
  0.74540251904219867E-01 -0.21360311691878985E-01
 -0.12239169622214546     -0.20257755281365787E-01
  0.11287224091174514      0.58534557717869612E-01
  0.86819939886597397     -0.20841649136414950    
  0.25869884038883101E-02 -0.13571104524865013E-01
 -0.10117472780006118E-01  0.20761608516151844E-01
  0.84750363510208426E-02  0.56938177155997347E-01
 -0.61182235470655932E-02  0.10162468063276225E-01
  0.85661931998507523     -0.22774334205629099    
 -0.10837443038405614E-01 -0.31185328204809404E-03
  0.81062148733965972E-01 -0.89444039123969560E-01
  0.21748907308028115E-01 -0.11398942112489270E-01
 -0.11187289790655933E-01 -0.44089198849821959E-02
  0.86965015297332460     -0.21186706580763764    
  0.71405176416678839     -0.66800655551212618    
  0.76448206019617798E-01 -0.11206049445215387    
 -0.27260759969340027E-01 -0.15840717259816596E-02
  0.11891090960122924      0.32550588883387084E-01
 -0.11741966322559329     -0.61189613411907325E-01
  0.94337932807524616      0.23464309463742528    
 -0.23653048176327865E-02 -0.25218767692044286E-02
  0.15395084590017705E-01 -0.34421199240319833E-02
  0.21075815990784671E-01 -0.12123216109330148E-01
  0.12977312859705908E-02  0.57450906412440106E-02
  0.94700391054633837      0.25217269517431185    
 -0.54876987862462756E-02  0.29791178307677635E-02
 -0.86715485942915213E-01  0.82670984706182754E-01
 -0.13470089445886194E-01 -0.61697306488543713E-02
 -0.33454898193088223E-02  0.44333396151524651E-03
  0.94498422241649704      0.23827039678553880    
  0.87222382843693169      0.22287937100357663    
  0.19014100147373414      0.11265148947280158    
 -0.53837982455339925E-01  0.52807612727496886E-01
  0.53711585833418063E-01 -0.58308102952720237E-01
 -0.62919255868742405E-01  0.27881004066692083E-01
  0.54635661185631945     -0.52274272584583081    
 -0.95117739178579241E-01 -0.53642828168879247E-01
  0.13737049757683123     -0.27881930277083789E-01
  0.79557823557836506E-02  0.43622536940143508E-01
 -0.15049857828504487E-01  0.83223224503061938E-01
  0.88382892848920036      0.22522364863896158    
  0.10896003864468151E-01  0.73806710569966072E-02
 -0.12154311309459237E-02 -0.48326510304971537E-01
 -0.27946314022275875E-01 -0.11815929015409166    
  0.17903306355617807E-01  0.19694308409132250E-01
  0.89395350393261164      0.20315479320808438    
  0.88574491216613493      0.18571328284731195    
 -0.50003418699039626E-01 -0.66908688831342239E-01
 -0.45224980751105093E-01  0.53091571327015835E-01
 -0.50523589791832690E-02  0.21205715996434871    
  0.48044073434586831E-01 -0.13769204351712735E-01
  0.88940389865565339      0.17710137011340432    
 -0.21346319431048144E-03  0.27996510549198134E-01
  0.69767465626931188E-01  0.98959161804456949E-01
  0.88880369725398561E-02  0.44752360653110855E-01
  0.11326520823129294E-01 -0.14372999182344220E-01
  0.89771116690151720      0.16608467654069717    
 -0.77108198539437234E-01  0.13100161673138478E-01
 -0.13608687089176896E-01  0.73172509659079621E-01
 -0.43788174730912954E-01 -0.98845776661668827E-01
 -0.99014867775919918E-01  0.47904733221657558E-01
  0.63032755639028482     -0.44030350809385121    
  0.88478300161671930     -0.30403252283278770    
  0.19834286732457687     -0.50449493351024471E-01
 -0.61757077784180936E-01  0.13256836755327678    
  0.15114722250011842      0.15784120292600690    
 -0.19922888816933484      0.93803145002146149E-01
  0.81012220503728216     -0.23527492871430999    
 -0.26291343064649961E-01 -0.15434262276327715E-01
  0.13846309308272697     -0.28672664940899290E-02
  0.86479094125062606E-02  0.10827757830771509    
 -0.62784217860355318E-01  0.10230077792631580    
  0.66961812387010033      0.56967679574782182    
 -0.10790605864550888     -0.21612741510087775E-01
 -0.50566851247974567E-01  0.19471206703425303    
 -0.12097343032300530      0.52528710633626546E-02
 -0.35296750475402608E-01 -0.46057327505370158E-02
  0.84136505902429892     -0.89266120267714522E-01
  0.98271742161847242     -0.58260555330641756E-01
 -0.10146694840706674      0.98930433707580812E-02
  0.41389300394312489E-02 -0.59123090836088188E-01
 -0.51513983086167586E-04  0.61718590938395886E-01
  0.95397321771399840E-01  0.20892691502002680E-01
  0.87938761734091342      0.12994126927001137    
 -0.25127202020445508E-02 -0.66919674260834658E-01
 -0.11946182923858222E-01  0.97182648498367288E-01
 -0.19607623406568558E-01 -0.64349867213722087E-01
 -0.46885321840843160E-02  0.53585693816191576E-01
  0.86677266873685421     -0.29781558658977303E-01
 -0.37471641955738239E-01  0.95001696790999735E-02
 -0.12469664137796932E-02  0.50632870130127322E-01
  0.51306893976157328E-01 -0.31550672089227932E-01
 -0.43825969833554461E-01 -0.11639749795877168E-01
  0.88218355607520504     -0.42554520938178519E-01
  0.95610755752783916     -0.19633872919459786    
  0.77537703345559095E-01  0.19705703807764628E-01
 -0.70590326301307980E-02 -0.59963963649417695E-01
 -0.10396075865443599     -0.10849707547622923    
 -0.59475325779524170E-01  0.31394588661280330E-01
  0.85556457424728150     -0.16718422331880967    
 -0.98233874814220908E-02 -0.38044698311691910E-01
 -0.44567353540595142E-02  0.49666029479905276E-01
 -0.30319215559774907E-01 -0.65581182038403504E-01
 -0.35660201236021715E-02  0.32958093066456154E-01
  0.85126921160303382     -0.16363570870341343    
 -0.64036549133759224E-01  0.26911312725836946E-02
  0.13402946086284495     -0.53210362461624777E-01
  0.10460300370474102     -0.23838271375515453E-01
 -0.27629885225628221E-01 -0.70971494059919524E-01
  0.73627698321461388      0.50416189636878750    
  0.78839570738050635      0.43668157039525263    
 -0.10008928670524336      0.87616797958431483E-01
  0.12282470954854811     -0.97599541920991975E-01
 -0.82908329307522829E-01 -0.12607035609124725    
  0.80622067100138362E-01  0.11368081215637457    
  0.87178457436732548     -0.25336734572720304    
 -0.20348643506850339E-02 -0.38391718944412831E-01
  0.24370614265582569E-01  0.36115876119885273E-01
 -0.44234938953670672E-01  0.14444596598796586E-01
  0.39224683963208024E-01  0.13338951972684479    
  0.66422019054626757     -0.34434110444136407    
 -0.12581418851632187      0.71731576011845738E-01
  0.12956052203837348     -0.28154242461505108E-01
 -0.41901231680814804E-01  0.77857437920903411E-01
 -0.23795285630566348E-01 -0.60106919201233386E-01
  0.87329740423951463      0.24481595110453136    
  0.71405176416678851      0.66800655551212629    
 -0.11741966322559336      0.61189613411907331E-01
  0.21075815990784688E-01  0.12123216109330176E-01
 -0.86715485942915227E-01 -0.82670984706182823E-01
  0.76448206019617743E-01  0.11206049445215389    
  0.94337932807524627     -0.23464309463742530    
  0.12977312859706047E-02 -0.57450906412441355E-02
 -0.13470089445886221E-01  0.61697306488544025E-02
 -0.27260759969340020E-01  0.15840717259816561E-02
 -0.23653048176328073E-02  0.25218767692043384E-02
  0.94700391054633837     -0.25217269517431190    
 -0.33454898193086974E-02 -0.44333396151535753E-03
  0.11891090960122923     -0.32550588883387077E-01
  0.15395084590017691E-01  0.34421199240320093E-02
 -0.54876987862462617E-02 -0.29791178307677635E-02
  0.94498422241649704     -0.23827039678553882    
  0.71588044682487484     -0.66600074435904755    
  0.74980085792555648E-01 -0.10835938822885277    
 -0.23820024251771654E-01  0.74032398349521689E-04
  0.11563298839504081      0.38241846830416759E-01
 -0.12047981690600373     -0.61305320990065720E-01
  0.94363139098949578      0.23357939135774819    
 -0.22315410168967514E-02 -0.24444682322258271E-02
  0.16459806243100839E-01 -0.42057519989146530E-02
  0.22096463161775028E-01 -0.14489271150330219E-01
  0.17441572223616808E-02  0.59571441463859148E-02
  0.94721524114925137      0.25117639514776680    
 -0.59861484686687116E-02  0.50089410755672636E-02
 -0.86476766516529149E-01  0.91291275677631872E-01
 -0.13757983900961841E-01 -0.67484454460195187E-02
 -0.35858698750811935E-02  0.18522039229316029E-02
  0.94479773513901089      0.23769672028048749    
  0.94627849914422635      0.23856779915215265    
  0.15335166797140160     -0.51582161045734855E-01
  0.12020654424862109E-01  0.62816017580923145E-01
 -0.17775717376902200E-01 -0.55326166923883369E-01
 -0.16134331503998151      0.13724028377334052E-01
  0.61505081276837137     -0.58921331479806405    
 -0.61494423731124265E-01 -0.27880934679823166E-01
  0.11356857014318633     -0.48017320783567047E-01
 -0.50723139607568385E-01  0.31697393717310167E-01
 -0.18565262675245019E-01  0.81807980356568666E-01
  0.86370630648852154      0.22426610808208730    
 -0.17121500232740373E-01 -0.28373289102653909E-02
  0.46029707295957734E-01 -0.27035092208760485E-01
 -0.32671673077254666E-01 -0.11348883097398405    
 -0.85987857134453213E-02 -0.57329147172948680E-02
  0.87472661147513442      0.21397194950243795    
  0.95307665374464112      0.19436179958150410    
 -0.66270698340102865E-01  0.13490305073345116E-01
  0.18239688002271576E-01  0.56719214259775802E-01
  0.13164309906413507      0.10854263756036986    
  0.55761823360921940E-01  0.40622971160740345E-01
  0.87352898980737670      0.18954542059755813    
  0.88003161629660875E-02 -0.91843720839288878E-02
  0.66713237225831334E-01  0.83697812545970945E-01
 -0.50645463235127558E-01  0.32409331987527892E-01
 -0.88182189468989924E-02  0.68187357546749816E-02
  0.87687560136155718      0.16764726852286413    
 -0.79213028072588509E-01  0.12480153673345951E-01
 -0.87357058821435074E-01  0.15518906461150853    
 -0.52192718759000833E-01 -0.58995652896380119E-01
 -0.62938750064092733E-01  0.31929816578198655E-01
  0.70616213030432573     -0.49497742743739032    
  0.90768409134450834     -0.32873731032114695    
  0.13958381462466246     -0.17484015690055615E-02
  0.10833813599949817      0.35349640239224434E-01
  0.87158259758601475E-01  0.12167192303937560    
 -0.11805303430404776      0.81284986905935747E-01
  0.84430822224764213     -0.24643171318273824    
 -0.26601534204762467E-01  0.16573737963414784E-01
  0.10297057921375719     -0.10247720793395254E-01
 -0.10290623247357836     -0.39883111161952658E-01
 -0.10172006552873834      0.10635643478099498    
  0.65427475549431269      0.55680763892043972    
 -0.12745230969984675     -0.63238777122116951E-01
 -0.28829663009010659E-01  0.13715410547369788    
 -0.10112228254761677      0.19720906145128447E-01
 -0.14399552966490779E-01  0.60318317268549804E-02
  0.87859092495997848     -0.72192303405434421E-01
  0.97419635399291049     -0.61756054745265743E-01
 -0.69560636112106736E-01  0.13883477119112947    
 -0.60004918070440616E-01 -0.36148728288810564E-01
  0.57974069426292296E-01  0.27375562592089023E-01
  0.54886819871906856E-01  0.13639039756125049    
  0.84977624033068788      0.14172641963353619    
 -0.76200373531646326E-02 -0.10969179020189020    
 -0.74399777257290467E-02  0.12633531070183029    
  0.51727487251111925E-01 -0.52419671426536960E-01
 -0.45841637773405552E-03  0.40392514293818703E-01
  0.88741598369831032     -0.34414678991689929E-01
 -0.87651971805050022E-02  0.83450989224684025E-02
 -0.65390441948128930E-01  0.37505629067624044E-01
  0.47950596145757862E-01 -0.23445487675758353E-01
 -0.94321147192749366E-02 -0.19815940241997843E-02
  0.89858913079180769     -0.50669668082913816E-01
  0.94917871314543689     -0.19159861325911465    
  0.55581617623174623E-01 -0.57798860590709544E-01
 -0.66800823721994973E-01 -0.26599693913765945E-01
 -0.18382171548448956      0.16900940350520061E-01
 -0.80279023292050472E-01 -0.47816929067213104E-01
  0.86784242612590101     -0.18272211969852900    
  0.96423552370786259E-04  0.11150965815537872E-02
 -0.36725954186608845E-02  0.49267414868601860E-01
  0.47752848770310968E-01 -0.64144614453296084E-01
  0.47613792291155421E-02  0.77301799690295270E-02
  0.87140727992554745     -0.17098117753805664    
 -0.49210209496510469E-01 -0.18090273551311098E-02
  0.15447970674403619      0.89253428878528274E-01
  0.12893758733819644     -0.37301426229599532E-01
 -0.57459601354097084E-01 -0.96467238863289645E-01
  0.70737514912763233      0.50111911694151745    
  0.83418462806468718      0.46394007578473506    
 -0.77958037747195660E-01  0.13853873579392523    
 -0.21201453682910792E-01 -0.94582389195389277E-01
 -0.19381002956242910     -0.54675941432835801E-01
  0.52305874625796403E-01  0.16002754076538175    
  0.84859852518838186     -0.25148634422319355    
 -0.10551694455762151E-01 -0.41460670956897427E-01
  0.23633587517101720E-01  0.70777264889406777E-01
 -0.10892117949717617E-02 -0.99589586099073119E-01
  0.35660825931472823E-01  0.97582245416638652E-01
  0.75982801093306052     -0.39950756649430191    
 -0.88773053063585072E-01  0.40576870258058131E-01
  0.16266834403523878      0.87095683132244389E-01
 -0.13351648247037301E-01  0.71028528637727004E-01
 -0.33952163512396161E-01 -0.65909123347227219E-01
  0.84572112514058972      0.24464796343805018    
  0.71588044682487473      0.66600074435904744    
 -0.12047981690600380      0.61305320990065755E-01
  0.22096463161775035E-01  0.14489271150330166E-01
 -0.86476766516529177E-01 -0.91291275677631914E-01
  0.74980085792555676E-01  0.10835938822885283    
  0.94363139098949600     -0.23357939135774819    
  0.17441572223616392E-02 -0.59571441463858593E-02
 -0.13757983900961890E-01  0.67484454460195742E-02
 -0.23820024251771703E-01 -0.74032398349476586E-04
 -0.22315410168967237E-02  0.24444682322258132E-02
  0.94721524114925137     -0.25117639514776685    
 -0.35858698750812490E-02 -0.18522039229315612E-02
  0.11563298839504080     -0.38241846830416759E-01
  0.16459806243100839E-01  0.42057519989147640E-02
 -0.59861484686686561E-02 -0.50089410755673192E-02
  0.94479773513901089     -0.23769672028048752    
  0.95963720177653777      0.22999868564556697    
  0.56677809656986142E-01 -0.45855599716662254E-01
  0.63995450556680600E-01 -0.43446780079872474E-02
 -0.65400743251582849E-01  0.23841314885325197E-01
 -0.61860731211622111E-01 -0.14412361542064045E-01
  0.64941899568390626     -0.59575813584787340    
 -0.31883377961937132E-01  0.83142503535772079E-02
  0.75088663563079416E-01 -0.64282170156387597E-01
 -0.54748821147922747E-01 -0.45140739525657579E-01
 -0.22183902433840420E-01  0.96548761092641017E-01
  0.84049817242226488      0.21980415568284725    
 -0.42001207666798657E-01 -0.76587929260222079E-03
  0.32847679389316341E-01  0.42239764666138976E-01
 -0.14869042713200054E-01 -0.12597955612448899    
 -0.39228488908264580E-01 -0.19949505765400562E-01
  0.85801038473369440      0.20489598802499237    
  0.96719571329341736      0.18112630238394004    
 -0.26549383459824050E-02  0.78395883262125696E-01
  0.61522927050696126E-01 -0.81536506616222935E-02
  0.92024043869828487E-01 -0.42655345679298851E-03
 -0.14714422125891510E-01  0.51757780737281933E-01
  0.85796104792802941      0.18044212175437627    
  0.84818150289496727E-02 -0.47063854971417809E-01
  0.60400981959988519E-01  0.99125864232936331E-01
 -0.55702314424491667E-01 -0.40641994140776100E-01
 -0.16607760602886122E-01  0.27371057789970083E-01
  0.85268917762974694      0.16704592030791365    
 -0.96411643341524425E-01  0.16956981940843812E-01
 -0.82693421369264386E-01  0.37409706256157901E-01
 -0.44063840116369886E-01 -0.19335224872268249E-01
 -0.20845163930803427E-01  0.24529954279777354E-01
  0.74119645645436250     -0.49466631143659245    
  0.81880210701753597     -0.68464571985439714E-02
  0.35289436164097311E-02  0.63879278208801016E-01
  0.62748894135616809E-01 -0.16843611691197979E-01
 -0.61998930924743040E-01  0.32719468475065044E-01
  0.20923235356067830E-03 -0.65380088075057796E-01
  0.89963889889435333      0.24133573168590178E-02
[...]
  0.83843471559665661      0.29130265222231960    
 -0.85410527014933138E-01  0.49721274900332513E-01
  0.10679919715052295     -0.14346352890099565    
 -0.46790163340075797E-01 -0.28353937130752849E-02
  0.28177452437145645E-01  0.81228007812295805E-01
  0.92229350755677575      0.27766618981651958    
  0.34345392096424981E-01  0.91998365800092019E-01
  0.15852086860446232     -0.14006993395268313E-01
 -0.21418371541121473E-01  0.23836197303968246E-01
  0.45353137390405418E-01  0.98372774854434353E-01
  0.67284310278436055     -0.60533593473050529    
  0.51925512317815281E-02  0.12407036654922524    
  0.23305129831757532E-01  0.86923721607008834E-02
 -0.15809009196008864     -0.69172968087867492E-01
  0.57806188033592582E-01  0.57360344885267228E-01
  0.96079443286543165      0.11324131550830072    
  0.96843171538210027     -0.18426708106345735    
  0.60883200112328700E-01  0.69108974410977964E-02
 -0.11828258344994506E-01 -0.52843754434725970E-01
 -0.84209701408088422E-01  0.17618122103549114E-01
 -0.52557926579535397E-01  0.15644093098093226E-01
  0.86056587767569670     -0.18906617246225935    
  0.82946976032996500E-03  0.74285823547085503E-02
  0.74380617918718028E-01 -0.55352514032229322E-02
 -0.10853552481811857E-01 -0.55824076132721841E-01
  0.55211896842293773E-02  0.52531345836163562E-01
  0.96335465334891235     -0.20377370760625657    
  0.46155321967289034E-02 -0.45087438037258079E-01
  0.60798578581332308E-01  0.60112471907762338E-01
  0.11201520696747769     -0.23270669048453554E-01
  0.20096530012754174E-01 -0.14422746402748758E-01
  0.76100657599355026      0.52473233050415025    
  0.95365055119727327     -0.23464617287167339    
 -0.48353095190806453E-01  0.92630871687265220E-01
 -0.10413225834782214E-01 -0.43457063955326836E-01
  0.72535444875178046E-01  0.62223595608091944E-01
 -0.21092378363132547E-01  0.91578358729545867E-01
  0.70140524347879807      0.62203342480872392    
  0.28124494298323546E-01  0.17568477308370078E-01
  0.30746820707971981E-01  0.17152497073657169    
 -0.15061854100844485E-01 -0.51657516455482416E-01
 -0.36816900727729189E-01 -0.29037774212392967E-01
  0.94927239601935354     -0.25541099281623214    
 -0.30733280504563823E-01  0.67437824366584562E-01
 -0.37870915172455277E-01  0.70171914935331939E-01
 -0.36801199033511256E-02  0.10808445930115651E-01
  0.20541639875506265E-01  0.12316935832669920E-01
  0.83599558322742329     -0.18801442555366721    
  0.67406322149781994      0.66042976286569977    
 -0.84938402283198988E-01  0.36610009902168797E-01
  0.10970820685277080     -0.38065776025713857E-01
 -0.51173466117788863E-01 -0.35555870348959018E-01
  0.42324973160858981E-01  0.74773337066197904E-01
  0.95195851583527669     -0.23962149376143579    
  0.16653972074182344E-01  0.45003342752652262E-01
 -0.19497870425166930E-02 -0.14644836157362739E-01
 -0.12925462343116312E-01  0.60494386955950122E-01
  0.27386929355093181E-01  0.82609031990907855E-01
  0.81834288114561415     -0.22260098723582905    
 -0.24928728668810129E-01  0.90090178330875070E-01
  0.53270603546922410E-01  0.29649645341036646E-02
 -0.14872188174587853E-01  0.10242905642239702E-02
  0.38525060361145974E-01  0.33040213960625335E-01
  0.95156877053035971     -0.25035871621089606    
  0.70717590497288008     -0.69037297591094315    
  0.76184833854817426E-02 -0.66619875732932543E-01
 -0.64036682419754909E-01 -0.20312544985515574E-02
  0.54226189155910876E-01 -0.57804367290580520E-01
 -0.46451899913908218E-01 -0.58743826800430811E-01
  0.94671244301994839      0.25133129681006872    
  0.19047403145500238E-01 -0.79149514447490327E-01
 -0.11831071456371203E-01 -0.11199389835957058E-02
  0.45218088577103827E-01 -0.19019075585207046E-01
  0.22195267412649204E-01 -0.72227379212186332E-01
  0.94712319868333239      0.25331398336808925    
  0.54869961054034286E-01 -0.41500754661509272E-01
 -0.83454458506347085E-01 -0.22960253326297919E-01
  0.64274804098193028E-02  0.69713680240939963E-02
 -0.27790151247241324E-01 -0.69287569945583355E-01
  0.94770240286004959      0.24435693850049139    
  0.95741190572367219      0.19758024487313694    
 -0.92210875176545554E-01 -0.61501463060552652E-01
 -0.82489984258748983E-02  0.37008622571504647E-01
  0.12108993837341983      0.48331656547229124E-01
  0.11433648830070553     -0.14023427895600071E-01
  0.88132476187762099      0.16371350280769675    
  0.68248896633233726E-03 -0.13091475987667862E-01
  0.21942819077475986E-02  0.12621084781744622E-01
 -0.96834921762949683E-02  0.31111314844524240E-01
  0.19725664630057402E-01 -0.36637944337292914E-01
  0.87278954596609437      0.16425078003776630    
 -0.58345690075410551E-01  0.10041947628358935    
 -0.96010511323851952E-01  0.74466440471645162E-01
  0.86879695683338379E-01 -0.14364250416684107    
 -0.73950525606018919E-01  0.33492967258727316E-02
  0.71473630779899167     -0.47407568283544499    
  0.98311426026076498      0.61910062035612154E-01
  0.63649560393028035E-01 -0.34677953269476883E-01
  0.43190075583826419E-03  0.29847723447114054E-01
 -0.62912573975668240E-01 -0.74246120011591227E-01
 -0.77328349426651871E-01 -0.35197822564672257E-01
  0.85279789400412687     -0.12886236298162987    
 -0.13133180273406379E-01 -0.82061514254700846E-01
  0.20063208241675907E-01  0.23013901070174710E-01
 -0.51663290775636368E-02  0.33797579880708695E-01
 -0.86862295508602361E-02  0.89405219813871520E-01
  0.89049174837491052      0.28828280600047718E-01
  0.24798037030094824E-01 -0.11363964871012404E-01
  0.72996545631745513E-01 -0.60775492171066092E-01
  0.12798327987861677     -0.64878982154642911E-01
 -0.57351403206291653E-02  0.55670791707244753E-02
  0.90082093649295980      0.52429090468819467E-01
  0.83418462806468729     -0.46394007578473495    
  0.52305874625796389E-01 -0.16002754076538178    
 -0.10892117949717617E-02  0.99589586099073160E-01
  0.16266834403523880     -0.87095683132244361E-01
 -0.77958037747195660E-01 -0.13853873579392523    
  0.84859852518838197      0.25148634422319355    
  0.35660825931472823E-01 -0.97582245416638597E-01
 -0.13351648247037343E-01 -0.71028528637727031E-01
 -0.21201453682910779E-01  0.94582389195389319E-01
 -0.10551694455762133E-01  0.41460670956897552E-01
  0.75982801093306052      0.39950756649430175    
 -0.33952163512396202E-01  0.65909123347227261E-01
 -0.19381002956242907      0.54675941432835759E-01
  0.23633587517101817E-01 -0.70777264889406749E-01
 -0.88773053063585017E-01 -0.40576870258058145E-01
  0.84572112514058972     -0.24464796343805018    
  0.90602177739916412      0.32975181006163645    
  0.54067525485290591E-01  0.14125487573610696    
 -0.47127137261748858E-01 -0.63064379674401636E-01
 -0.32738719628428649E-01  0.14222642985071232    
 -0.12730241574907680      0.10034847110241968    
  0.91820559965180126      0.26028333481499610    
  0.34619406567772140E-01  0.11200345938762934    
  0.14014897185453679      0.10152328626435725E-02
 -0.11555359645864904E-01 -0.79517542082312181E-01
  0.41881303179213805E-01  0.10028874116431163    
  0.71782612734782503     -0.66771329222518672    
 -0.11970170464985219E-01  0.10471455408343022    
 -0.16276404083607934E-01  0.12575368299034573    
 -0.15388171254295732     -0.42707910212228195E-01
  0.74249232452272204E-01  0.48512641584765384E-01
  0.95005117178916132      0.12423167926266222    
  0.89594643589576239     -0.18284241169222171    
  0.17496723810538961E-01 -0.40781667800572866E-01
 -0.58547979215344631E-01 -0.31915779620293239E-01
 -0.98502229444976663E-01  0.14039812576492786    
 -0.24123438224927907E-01 -0.38003172837588542E-01
  0.87790229548568655     -0.19894577135830865    
  0.62658756623991951E-02  0.48580089253894107E-01
  0.75144041433905351E-01  0.48866655644272637E-02
  0.39252134633376137E-01 -0.49708529713911528E-01
  0.10657996464166153E-01  0.60592855313701184E-01
  0.96538207287886735     -0.20718189422561414    
  0.11211410984524453E-01 -0.51662136271188097E-01
 -0.82045251383632972E-01  0.54955924488708813E-01
  0.10023716210316895     -0.21601981575949392E-01
  0.15621666647602755E-01 -0.57308708784528387E-01
  0.68152808311803859      0.47587542014453199    
  0.87864936850287212     -0.22993409454208302    
  0.32448241573819529E-01  0.18560002999371900    
 -0.56341026598500960E-01 -0.17794595524642104E-01
  0.52447113410370047E-01 -0.16002914949198699E-01
 -0.12144166131417292     -0.20433012335623585E-01
  0.62757465105073129      0.56427293746695539    
  0.45793426201161488E-01 -0.16923086121978133E-01
  0.13757992820519135E-01  0.16784180663414103    
  0.39596014673839025E-01 -0.46196454312819310E-01
 -0.35609456578185185E-01 -0.40082040538266750E-01
  0.95194507264160444     -0.25930263865813308    
 -0.27026712890251686E-01  0.74859664433319650E-01
 -0.41712641467821943E-01 -0.10420898102171505E-01
  0.20695717502058064E-01  0.65074317986893136E-02
  0.49975130280145552E-01  0.44055508118476125E-01
  0.85674324987577943     -0.20102053003351611    
  0.70717590497288008      0.69037297591094327    
 -0.46451899913908204E-01  0.58743826800430776E-01
  0.45218088577103820E-01  0.19019075585207157E-01
 -0.83454458506347071E-01  0.22960253326297864E-01
  0.76184833854817113E-02  0.66619875732932515E-01
  0.94671244301994850     -0.25133129681006872    
  0.22195267412649239E-01  0.72227379212186305E-01
  0.64274804098193028E-02 -0.69713680240940518E-02
 -0.64036682419754826E-01  0.20312544985515348E-02
  0.19047403145500241E-01  0.79149514447490313E-01
  0.94712319868333261     -0.25331398336808930    
 -0.27790151247241351E-01  0.69287569945583327E-01
  0.54226189155910931E-01  0.57804367290580499E-01
 -0.11831071456371189E-01  0.11199389835956919E-02
  0.54869961054034300E-01  0.41500754661509237E-01
  0.94770240286004959     -0.24435693850049134    
  0.64716443172655724     -0.61471966238370601    
 -0.25789226324540962E-01  0.32720600307520331E-02
 -0.76825659635369109E-01 -0.11281665402262830E-01
  0.11259760129886956E-01 -0.54550776063655743E-01
 -0.30388369872700272E-01 -0.12672438664866909    
  0.83775531628094024      0.23157333927319970    
  0.91933920659897916E-02 -0.86225131069243288E-01
  0.15457932287710294E-01  0.20581714386242594E-01
  0.20935869994044870E-01 -0.41613898893008969E-01
  0.21956462325697035E-01 -0.66719840589313212E-01
  0.95290019926678560      0.24815797192998068    
  0.47177877444827709E-01 -0.29128818795924879E-01
 -0.14641086153882762     -0.10279495387705927    
  0.41516366807326940E-01 -0.11678710811023923E-01
 -0.38287374060857277E-01 -0.59753969324454773E-01
  0.83719091179943850      0.20823239037220515    
  0.95272272127547097      0.19494865094721098    
 -0.82792294736150393E-01  0.20042140354238694E-01
  0.62299670089687939E-01  0.38163075807725919E-01
  0.13938698781348580     -0.82330116824815364E-01
  0.64482163844621021E-01  0.55165745263490468E-01
  0.87363621996672780      0.16518950429805945    
  0.65904926249798490E-02 -0.10864835190052227E-01
  0.40804786388627223E-01  0.29326137511569483E-01
 -0.67196641377827881E-01  0.25781519069852186E-02
  0.15773863454354886E-01 -0.36747424654858668E-01
  0.88094630548620356      0.17124022208726128    
 -0.78027231966615512E-01  0.11426009262747611    
 -0.16251280920863120     -0.31457946965744291E-01
  0.63947059976791787E-01 -0.12715809936193373    
 -0.43429782092764768E-01  0.12502515701897143E-01
  0.70655701133091431     -0.47759754281346711    
  0.97407005999432605      0.60753424572154491E-01
  0.27704591421678137E-01 -0.13370650002699383    
  0.60177591021432317E-01  0.20903983711869176E-01
 -0.87753734225721705E-01  0.89211937132089147E-02
 -0.46430465169746138E-01 -0.14989567090154163    
  0.83949102731899106     -0.14152038821218346    
 -0.59023884409205724E-02 -0.48670842331148767E-01
  0.16062796303819349E-01  0.70251170976748240E-02
 -0.64127269112132734E-01  0.13017688968048988E-01
 -0.11492812551577896E-01  0.11679602601794853    
  0.89982398718560286      0.34283270558489218E-01
  0.21909070862429159E-01 -0.14950103472685383E-01
  0.73040879224665511E-01  0.18531503797412568E-01
  0.14509139942322907     -0.94259109812255881E-01
  0.21696367807862993E-02  0.43064945544951660E-02
  0.88810736112762845      0.59109308268807420E-01
  0.83067679232237535     -0.47230681580910311    
  0.56021791843613722E-02 -0.16661021938198178    
  0.92631364022095292E-01 -0.72990133882497588E-02
  0.10429021525191545     -0.12456494865104972    
 -0.47022351651515915E-01 -0.16298332801123525    
  0.82801567858213132      0.24396552647867742    
  0.17104904806885882E-01 -0.73991865330134465E-01
  0.14663322001512616E-01 -0.46637315386658454E-01
 -0.11394596787242513     -0.13710396509845568E-01
 -0.24803508487027726E-01  0.57069737396876735E-01
  0.77541817983181027      0.41437672593685904    
 -0.52864471918792205E-01  0.66784928159253729E-01
 -0.18485421416139877     -0.11864130641645432E-01
  0.32102923186839258E-01 -0.96745786185724741E-01
 -0.73345297074598942E-01 -0.12366540875780568E-01
  0.83014148804932253     -0.23544980804665891    
  0.89504258977934736      0.30098993645081656    
  0.14544887209291379      0.76008852668989102E-01
 -0.72387214271146610E-01  0.89194966256898572E-01
  0.21696437089837158E-01  0.18793789800506641    
 -0.18015505972648249     -0.44661063526136580E-02
  0.91650726300938279      0.25586826774201810    
  0.18719590824423801E-01  0.10579050449886571    
  0.11325024561847515      0.13749812992018422E-01
  0.80275300623675508E-01  0.23233391349960535E-01
  0.51088803598432396E-01  0.10529154199341102    
  0.72460825992192057     -0.65825359190067256    
 -0.14880145596861481E-01  0.10691515688303185    
 -0.87079209777208635E-01  0.15503220061236550    
 -0.13218860103436111     -0.94769547704525656E-02
  0.56869986543055570E-01  0.46716059996019930E-01
  0.94030788528197662      0.13828273770536392    
  0.85745644746304506     -0.17280283763315188    
  0.84034440539243471E-02  0.23893863572374673E-01
 -0.33270541646505059E-01  0.13373551645633482E-01
  0.23166791823429282E-01  0.96904300805718935E-01
  0.13992993018331509E-01 -0.61721160600980408E-01
  0.85398563051900234     -0.18810186263687606    
  0.15488575368908259E-01  0.60869942799046561E-01
  0.35123937331814986E-01 -0.97311216853880507E-02
  0.47146388948241975E-01  0.68603116917226314E-04
  0.80550221143655121E-02  0.75699462569959977E-01
  0.96801218081734786     -0.20048904767697606    
  0.20274706682193000E-01 -0.58904122602722098E-01
 -0.26686203001805839E-01 -0.42842460937921698E-01
  0.99931318974963226E-01 -0.28017678814411320E-01
  0.98565310237718213E-02 -0.45118801493126082E-01
  0.73018171869320181      0.51127637961510475    
  0.85011228732878730     -0.20759990903275063    
  0.62461657871568550E-01  0.33362145303000475E-01
 -0.22120341405501093E-01  0.16559694691042150E-01
 -0.11460880673782259E-01  0.27583993059976230E-01
  0.40732042271427502E-01 -0.64313160655481677E-01
  0.66446060705175936      0.59677193640225723    
  0.37087487481154036E-01 -0.20248294263450872E-01
  0.18390892470262710E-01  0.16424915362137996    
  0.36516702977061472E-01  0.48809327626405767E-02
 -0.30170693043910096E-01 -0.58036834623256484E-01
  0.95607409344726224     -0.24888178182704401    
 -0.30124908370352057E-01  0.81068419856339863E-01
 -0.14566708026607552E-01 -0.54364255091363903E-01
 -0.72475458205703142E-02  0.41173612134209024E-01
  0.55101519109639355E-01  0.53024718978142510E-01
  0.83902749245710107     -0.20296878648590078    
  0.64716443172655724      0.61471966238370601    
 -0.30388369872700285E-01  0.12672438664866909    
  0.20935869994044953E-01  0.41613898893009010E-01
 -0.14641086153882762      0.10279495387705931    
 -0.25789226324540959E-01 -0.32720600307520331E-02
  0.83775531628094035     -0.23157333927319976    
  0.21956462325697063E-01  0.66719840589313253E-01
  0.41516366807326829E-01  0.11678710811023847E-01
 -0.76825659635369081E-01  0.11281665402262803E-01
  0.91933920659897847E-02  0.86225131069243274E-01
  0.95290019926678571     -0.24815797192998063    
 -0.38287374060857242E-01  0.59753969324454780E-01
  0.11259760129886926E-01  0.54550776063655729E-01
  0.15457932287710335E-01 -0.20581714386242567E-01
  0.47177877444827689E-01  0.29128818795924844E-01
  0.83719091179943839     -0.20823239037220515    
  0.86938709523363189      0.21032236049913644    
  0.57311127394442211E-03 -0.25691227090833046E-01
  0.11541357218698316     -0.58942797666253193E-02
 -0.70813552309611366E-02  0.27332948352872130E-01
  0.15335130078891285E-01 -0.57849215163969459E-01
  0.89643801653261246      0.27639774369133660E-01
  0.10522521176137948E-01 -0.67419102720358948E-01
 -0.31501473743902331E-02 -0.48515521957583740E-01
  0.91981589562434296E-02 -0.39345127040427636E-02
 -0.76957376062603590E-02  0.59099887999116890E-01
  0.78241214145908233      0.18440799060670232    
 -0.27297925574624363E-01  0.65051119807971722E-01
 -0.16624852870555294E-01  0.24263420358186516E-02
 -0.36633244007893973E-02 -0.79624127882586382E-01
 -0.67857470267422185E-01 -0.11804619745702905E-01
  0.78362016487311537     -0.43983122246853823    
  0.88758856059311153      0.17069035358660867    
 -0.82330734113162940E-02 -0.76636842118603665E-02
  0.41506317378315227E-01 -0.40808411392943833E-02
 -0.17445692050949452E-01  0.41051130586734208E-01
 -0.12140499386083276E-01  0.36118676172791520E-01
  0.90173212550654280      0.15954137376784455    
  0.10369097426461971E-01 -0.41574565155363355E-01
  0.41491213085100731E-01  0.32723587611947880E-01
 -0.61467276856404518E-01 -0.45021063755514568E-01
  0.20352050442220909E-01 -0.68395111240526218E-01
  0.88952298245353223      0.17294221674349813    
 -0.10349923856461310      0.11822174650213133    
 -0.12559964649616101     -0.99973175795016939E-01
  0.46346491308409454E-01 -0.12924251297331363    
 -0.24773214918040881E-01  0.14582778908536691E-01
  0.65700508651345002     -0.42357531497156548    
  0.90180399241543463      0.51714188010119844E-01
  0.28303604061683807E-02 -0.58200411440814791E-02
  0.40058165079336190E-01 -0.94874302253049603E-02
 -0.80963721016239776E-02  0.87379260324607320E-02
  0.33239551028708403E-01 -0.20066271480049203    
  0.75737025459943175     -0.13157839452272116    
  0.11835145982592721E-02 -0.18774504807927278E-01
  0.40861158459070623E-01 -0.29082475743831548E-02
 -0.59258305284282720E-01 -0.31894061117813344E-01
 -0.20537440068458424E-01  0.15305756079752697    
  0.90649035517839227      0.34015699304539085E-01
  0.46581582086657913E-01 -0.51899064252035630E-01
  0.39529871008273376E-02  0.38709691638685269E-01
  0.12426131305194314     -0.94237155084043983E-01
 -0.16108729550316669E-01 -0.31394582891431537E-01
  0.91598028849670166      0.66128703133671779E-01
  0.77018727260353814     -0.10143443998241970E-01
  0.26482750563991075E-01  0.10312500209648540    
  0.65573867377909517E-01 -0.19982124773880200E-01
 -0.33412646429625409E-01  0.75623740960326175E-01
  0.21816122946435895E-01 -0.85297649242351919E-01
  0.91556314307405207      0.55485501986741841E-03
  0.24396312317425672E-02  0.57930377404841228E-02
  0.21680580889305523E-01 -0.27135107479486886E-01
  0.93445061899995130E-01  0.35307279040713166E-01
  0.63094890083511268E-02 -0.24448898023150333E-01
  0.91491306925983040      0.36852147867434543E-02
  0.11592729704549026E-01 -0.19899573466831418E-01
 -0.18825046868391621E-01 -0.84581332510452800E-01
 -0.41440109728137553E-01 -0.17205870678005150E-01
  0.48072620759945506E-02 -0.51377254501223935E-02
  0.92592753895562230      0.13016303949244634E-01
 -0.65935192849628654      0.65823810562214224     -0.68096873258335955    
  0.66928332800896229      0.69582785944211933      0.66680592431825070    
  0.68249031873918764     -0.68384575074275522     -0.68372578228958514    
 -0.70167259786957359     -0.65657525946575701      0.70375116115469460    
   2.3949261697063813    
   2.1937271833619203    
   1.8386380313302291    
   1.8851245798084264    
