BEGIN_INFO
  # Created by WannierIO.jl 2022-10-25T19:33:51.381
  Fermi Energy:    0.0000000000000000
END_INFO

BEGIN_BLOCK_BANDGRID_3D
from_WannierIO.jl_code
BEGIN_BANDGRID_3D_fermi
4
3 3 3
   0.0000000    0.0000000    0.0000000
  -1.1640686   -1.1640686    1.1640686
   1.1640686    1.1640686    1.1640686
  -1.1640686    1.1640686   -1.1640686
BAND: 1
  -5.69829170e+00  -3.32138226e+00  -5.69829170e+00  -3.32138225e+00  -1.48819818e+00  -3.32138225e+00
  -5.69829170e+00  -3.32138226e+00  -5.69829170e+00  -3.32138225e+00  -1.48819817e+00  -3.32138225e+00
  -1.48819818e+00  -3.32138220e+00  -1.48819818e+00  -3.32138225e+00  -1.48819817e+00  -3.32138225e+00
  -5.69829170e+00  -3.32138226e+00  -5.69829170e+00  -3.32138225e+00  -1.48819818e+00  -3.32138225e+00
  -5.69829170e+00  -3.32138226e+00  -5.69829170e+00
BAND: 2
   6.38687842e+00  -6.66714153e-01   6.38687842e+00  -6.66714133e-01  -1.48819813e+00  -6.66714133e-01
   6.38687842e+00  -6.66714153e-01   6.38687842e+00  -6.66714188e-01  -1.48819811e+00  -6.66714188e-01
  -1.48819807e+00  -6.66714115e-01  -1.48819807e+00  -6.66714188e-01  -1.48819811e+00  -6.66714188e-01
   6.38687842e+00  -6.66714153e-01   6.38687842e+00  -6.66714133e-01  -1.48819813e+00  -6.66714133e-01
   6.38687842e+00  -6.66714153e-01   6.38687842e+00
BAND: 3
   6.38687846e+00   5.17177280e+00   6.38687846e+00   5.17177279e+00   3.48705457e+00   5.17177279e+00
   6.38687846e+00   5.17177280e+00   6.38687846e+00   5.17177277e+00   3.48705456e+00   5.17177277e+00
   3.48705457e+00   5.17177279e+00   3.48705457e+00   5.17177277e+00   3.48705456e+00   5.17177277e+00
   6.38687846e+00   5.17177280e+00   6.38687846e+00   5.17177279e+00   3.48705457e+00   5.17177279e+00
   6.38687846e+00   5.17177280e+00   6.38687846e+00
BAND: 4
   6.38687855e+00   5.17177290e+00   6.38687855e+00   5.17177288e+00   3.48705466e+00   5.17177288e+00
   6.38687855e+00   5.17177290e+00   6.38687855e+00   5.17177287e+00   3.48705466e+00   5.17177287e+00
   3.48705462e+00   5.17177282e+00   3.48705462e+00   5.17177287e+00   3.48705466e+00   5.17177287e+00
   6.38687855e+00   5.17177290e+00   6.38687855e+00   5.17177288e+00   3.48705466e+00   5.17177288e+00
   6.38687855e+00   5.17177290e+00   6.38687855e+00
END_BANDGRID_3D
END_BLOCK_BANDGRID_3D
