 written on  3Aug2022 at 20:35:31 
  -2.6988037638089994        0.0000000000000000        2.6988037638089994     
   0.0000000000000000        2.6988037638089994        2.6988037638089994     
  -2.6988037638089994        2.6988037638089994        0.0000000000000000     
           4
          93
    4    6    2    2    2    1    2    2    1    1    2    6    2    2    2
    6    2    2    4    1    1    1    4    1    1    1    1    2    1    1
    1    2    2    1    1    2    4    2    1    2    1    1    1    1    2
    1    1    1    2    1    1    1    1    2    1    2    4    2    1    1
    2    2    1    1    1    2    1    1    1    1    4    1    1    1    4
    2    2    6    2    2    2    6    2    1    1    2    2    1    2    2
    2    6    4

   -3    1    1
    1    1    0.51893360E-02 -0.29716277E-02 
    2    1   -0.12823370E-01 -0.33464265E-02 
    3    1   -0.32195889E-02 -0.30053643E-02 
    4    1    0.46439474E-02 -0.34360217E-02 
    1    2    0.55999222E-02  0.15764173E-01 
    2    2    0.11481721E-02  0.30363826E-02 
    3    2   -0.44183432E-02  0.64618672E-03 
    4    2    0.55428966E-02 -0.72297952E-02 
    1    3    0.26188195E-02  0.27179103E-02 
    2    3   -0.12233403E-01 -0.70187926E-04 
    3    3    0.13669921E-01 -0.71388369E-03 
    4    3   -0.99484409E-03 -0.41439708E-02 
    1    4    0.25799029E-02  0.92672368E-03 
    2    4   -0.14206415E-02  0.39022992E-02 
    3    4    0.22439957E-02  0.44452312E-03 
    4    4    0.21383433E-02  0.64912879E-03 

   -2   -2    2
    1    1    0.34355603E-02  0.35586976E-17 
    2    1    0.26308325E-03 -0.23060545E-02 
    3    1   -0.12989944E-02 -0.21818158E-03 
    4    1    0.82559131E-03 -0.18459109E-02 
    1    2    0.26308325E-03  0.23060545E-02 
    2    2    0.24669543E-02  0.78191818E-18 
    3    2   -0.15018552E-02  0.43950707E-03 
    4    2    0.21451258E-02 -0.52623931E-03 
    1    3   -0.12989944E-02  0.21818158E-03 
    2    3   -0.15018552E-02 -0.43950707E-03 
    3    3    0.33571969E-02 -0.15272749E-17 
    4    3   -0.84297514E-03 -0.68534790E-04 
    1    4    0.82559131E-03  0.18459109E-02 
    2    4    0.21451258E-02  0.52623931E-03 
    3    4   -0.84297514E-03  0.68534790E-04 
    4    4    0.37713149E-02  0.52254280E-18 

   -2   -1    1
    1    1    0.34574921E-02 -0.20782572E-03 
    2    1   -0.52136005E-03 -0.27802959E-02 
    3    1   -0.77459579E-03  0.10375622E-02 
    4    1   -0.15466123E-02 -0.10970491E-02 
    1    2    0.28378275E-02 -0.27516171E-02 
    2    2    0.41713879E-02 -0.98835266E-03 
    3    2   -0.52220289E-03  0.92580295E-03 
    4    2    0.36368515E-02  0.12937888E-01 
    1    3   -0.13330834E-02 -0.68161820E-04 
    2    3    0.19385895E-02 -0.17454491E-02 
    3    3   -0.72589503E-03  0.67923423E-03 
    4    3   -0.53244627E-02  0.14981374E-02 
    1    4   -0.14538939E-02 -0.23511028E-03 
    2    4   -0.35581150E-02  0.60278149E-03 
    3    4   -0.55727830E-02 -0.95767421E-03 
    4    4   -0.60419354E-02  0.51694415E-03 

   -2   -1    2
    1    1   -0.57552686E-02 -0.63717201E-03 
    2    1    0.18917074E-02 -0.26243228E-03 
    3    1    0.24695177E-02 -0.73716964E-03 
    4    1   -0.42016259E-02 -0.20655485E-02 
    1    2   -0.31243646E-03 -0.77509794E-02 
    2    2    0.93755978E-03  0.29645475E-03 
    3    2    0.14695648E-02  0.26070565E-02 
    4    2   -0.13089650E-01 -0.10713515E-01 
    1    3   -0.59604862E-03 -0.28317468E-03 
    2    3   -0.19208452E-03 -0.44019072E-03 
    3    3    0.23114166E-02 -0.53288072E-03 
    4    3   -0.36262566E-03  0.14743660E-02 
    1    4   -0.24962913E-02  0.15558799E-04 
    2    4    0.53015600E-03  0.12372426E-02 
    3    4   -0.34514822E-03  0.13806502E-02 
    4    4    0.33673418E-02  0.87359798E-03 

   -2    0    0
    1    1   -0.58951919E-02  0.76897159E-16 
    2    1    0.15564994E-02 -0.17527225E-02 
    3    1    0.16218193E-01 -0.14824690E-01 
    4    1    0.19369423E-01 -0.54683393E-03 
    1    2    0.15564994E-02  0.17527225E-02 
    2    2    0.99083801E-03  0.76895433E-16 
    3    2   -0.12083639E-01 -0.19577102E-01 
    4    2    0.14422434E-02 -0.17216361E-01 
    1    3    0.16218193E-01  0.14824690E-01 
    2    3   -0.12083639E-01  0.19577102E-01 
    3    3    0.11865264E+00  0.13540235E-15 
    4    3    0.14025119E+00 -0.28464852E-01 
    1    4    0.19369423E-01  0.54683393E-03 
    2    4    0.14422434E-02  0.17216361E-01 
    3    4    0.14025119E+00  0.28464852E-01 
    4    4    0.81125968E-01  0.74513481E-16 

   -2    0    1
    1    1    0.12370188E-01 -0.17183194E-02 
    2    1    0.61434338E-02  0.11376499E-01 
    3    1   -0.30371089E-02 -0.11930410E-02 
    4    1    0.28997790E-02  0.22252957E-01 
    1    2   -0.12272410E-02  0.13742571E-02 
    2    2    0.23393429E-02 -0.19680657E-02 
    3    2   -0.40707198E-04  0.10771978E-02 
    4    2    0.56976242E-03 -0.29429896E-02 
    1    3    0.36419555E-02 -0.33587415E-02 
    2    3    0.10232927E-03  0.79432781E-03 
    3    3   -0.10556060E-01 -0.98244378E-03 
    4    3   -0.47002414E-02 -0.77227227E-03 
    1    4    0.20490120E-01 -0.82085679E-02 
    2    4   -0.24363700E-01  0.35473852E-01 
    3    4   -0.14068155E-01 -0.11878938E-01 
    4    4   -0.98476162E-02  0.46688289E-02 

   -2    0    2
    1    1    0.85829022E-01 -0.26455480E-17 
    2    1    0.16977458E-02  0.62208507E-02 
    3    1    0.21372188E-02 -0.19908721E-02 
    4    1    0.86598684E-01 -0.10737590E+00 
    1    2    0.16977458E-02 -0.62208507E-02 
    2    2    0.70926175E-03 -0.10872320E-16 
    3    2    0.15532373E-02  0.37879971E-02 
    4    2    0.28807745E-02  0.23645140E-03 
    1    3    0.21372188E-02  0.19908721E-02 
    2    3    0.15532373E-02 -0.37879971E-02 
    3    3   -0.43428845E-02  0.13362155E-16 
    4    3    0.12808945E-02  0.71067687E-04 
    1    4    0.86598684E-01  0.10737590E+00 
    2    4    0.28807745E-02 -0.23645140E-03 
    3    4    0.12808945E-02 -0.71067687E-04 
    4    4    0.11267885E+00  0.17376798E-17 

   -2    1   -1
    1    1    0.34574921E-02  0.20782572E-03 
    2    1    0.28378275E-02  0.27516171E-02 
    3    1   -0.13330834E-02  0.68161820E-04 
    4    1   -0.14538939E-02  0.23511028E-03 
    1    2   -0.52136005E-03  0.27802959E-02 
    2    2    0.41713879E-02  0.98835266E-03 
    3    2    0.19385895E-02  0.17454491E-02 
    4    2   -0.35581150E-02 -0.60278149E-03 
    1    3   -0.77459579E-03 -0.10375622E-02 
    2    3   -0.52220289E-03 -0.92580295E-03 
    3    3   -0.72589503E-03 -0.67923423E-03 
    4    3   -0.55727830E-02  0.95767421E-03 
    1    4   -0.15466123E-02  0.10970491E-02 
    2    4    0.36368515E-02 -0.12937888E-01 
    3    4   -0.53244627E-02 -0.14981374E-02 
    4    4   -0.60419354E-02 -0.51694415E-03 

   -2    1    0
    1    1    0.40587417E-02  0.29225963E-04 
    2    1   -0.18483103E-02 -0.71288911E-03 
    3    1   -0.85481155E-03  0.28646767E-02 
    4    1    0.15620072E-02 -0.14912541E-02 
    1    2    0.23895592E-02 -0.63291743E-02 
    2    2    0.97938354E-02 -0.25738876E-02 
    3    2    0.14979620E-02 -0.17295430E-02 
    4    2    0.20445694E-01  0.67783238E-02 
    1    3   -0.33227861E-02 -0.21078864E-02 
    2    3    0.34150314E-02  0.43611683E-02 
    3    3   -0.55477387E-02 -0.81401492E-04 
    4    3    0.15353380E-02 -0.37624975E-03 
    1    4    0.19161483E-01  0.32050952E-01 
    2    4    0.13312566E-01  0.13358867E-01 
    3    4   -0.12917221E-01 -0.19497511E-02 
    4    4   -0.13998984E-01  0.26260631E-02 

   -2    1    1
    1    1   -0.47981374E-02  0.63840070E-03 
    2    1   -0.84931819E-03 -0.10844794E-01 
    3    1    0.39025596E-02 -0.37143145E-02 
    4    1   -0.82569851E-03  0.78670968E-03 
    1    2   -0.23900919E-02  0.26255678E-02 
    2    2   -0.69564976E-02  0.20540476E-03 
    3    2   -0.11268153E-02 -0.16704113E-02 
    4    2   -0.29369312E-02  0.11123852E-02 
    1    3    0.16103322E-02  0.42176364E-02 
    2    3    0.59589574E-03 -0.75923484E-03 
    3    3    0.37233037E-02  0.24171936E-03 
    4    3    0.27137918E-02 -0.69433304E-03 
    1    4   -0.10114711E-01 -0.29672186E-01 
    2    4    0.40500763E-01 -0.24181620E-01 
    3    4    0.22393705E-01  0.61509597E-02 
    4    4    0.23371861E-02 -0.10855248E-02 

   -2    1    2
    1    1   -0.57552686E-02  0.63717201E-03 
    2    1   -0.31243646E-03  0.77509794E-02 
    3    1   -0.59604862E-03  0.28317468E-03 
    4    1   -0.24962913E-02 -0.15558799E-04 
    1    2    0.18917074E-02  0.26243228E-03 
    2    2    0.93755978E-03 -0.29645475E-03 
    3    2   -0.19208452E-03  0.44019072E-03 
    4    2    0.53015600E-03 -0.12372426E-02 
    1    3    0.24695177E-02  0.73716964E-03 
    2    3    0.14695648E-02 -0.26070565E-02 
    3    3    0.23114166E-02  0.53288072E-03 
    4    3   -0.34514822E-03 -0.13806502E-02 
    1    4   -0.42016259E-02  0.20655485E-02 
    2    4   -0.13089650E-01  0.10713515E-01 
    3    4   -0.36262566E-03 -0.14743660E-02 
    4    4    0.33673418E-02 -0.87359798E-03 

   -2    2   -2
    1    1    0.34355603E-02 -0.64496220E-17 
    2    1    0.26308325E-03 -0.23060545E-02 
    3    1   -0.12989944E-02 -0.21818158E-03 
    4    1    0.82559131E-03 -0.18459109E-02 
    1    2    0.26308325E-03  0.23060545E-02 
    2    2    0.24669543E-02  0.10644479E-16 
    3    2   -0.15018552E-02  0.43950707E-03 
    4    2    0.21451258E-02 -0.52623931E-03 
    1    3   -0.12989944E-02  0.21818158E-03 
    2    3   -0.15018552E-02 -0.43950707E-03 
    3    3    0.33571969E-02 -0.17905156E-17 
    4    3   -0.84297514E-03 -0.68534790E-04 
    1    4    0.82559131E-03  0.18459109E-02 
    2    4    0.21451258E-02  0.52623931E-03 
    3    4   -0.84297514E-03  0.68534790E-04 
    4    4    0.37713149E-02  0.93154240E-18 

   -2    2   -1
    1    1    0.24653656E-03  0.92356743E-03 
    2    1    0.30289136E-02  0.76231802E-03 
    3    1   -0.23937201E-02  0.19930087E-02 
    4    1    0.24370868E-02 -0.18369010E-02 
    1    2    0.69538589E-03 -0.23355498E-02 
    2    2   -0.13522167E-02 -0.18885935E-02 
    3    2   -0.95564647E-03 -0.10958364E-02 
    4    2   -0.23092844E-02  0.40166071E-02 
    1    3   -0.25612011E-02 -0.15356400E-03 
    2    3    0.84084416E-03 -0.11001086E-04 
    3    3    0.34215526E-02  0.10743440E-02 
    4    3    0.22677495E-02 -0.31971104E-04 
    1    4    0.24868486E-03 -0.93474682E-03 
    2    4    0.50324203E-02 -0.72672396E-03 
    3    4   -0.16464448E-02 -0.54531773E-03 
    4    4   -0.14548229E-02 -0.10931793E-03 

   -2    2    0
    1    1   -0.47772406E-02  0.14076542E-16 
    2    1    0.11460302E-02  0.17311197E-02 
    3    1   -0.21391432E-02  0.64843009E-03 
    4    1   -0.29170640E-03  0.44394750E-02 
    1    2    0.11460302E-02 -0.17311197E-02 
    2    2    0.81452637E-01  0.13698583E-16 
    3    2    0.19960609E-02 -0.45564923E-03 
    4    2   -0.95927871E-01 -0.11753715E+00 
    1    3   -0.21391432E-02 -0.64843009E-03 
    2    3    0.19960609E-02  0.45564923E-03 
    3    3   -0.54982302E-02  0.11052893E-16 
    4    3    0.48436829E-03 -0.76057191E-03 
    1    4   -0.29170640E-03 -0.44394750E-02 
    2    4   -0.95927871E-01  0.11753715E+00 
    3    4    0.48436829E-03  0.76057191E-03 
    4    4    0.12369709E+00 -0.61862542E-17 

   -2    2    1
    1    1    0.24653656E-03 -0.92356743E-03 
    2    1    0.69538589E-03  0.23355498E-02 
    3    1   -0.25612011E-02  0.15356400E-03 
    4    1    0.24868486E-03  0.93474682E-03 
    1    2    0.30289136E-02 -0.76231802E-03 
    2    2   -0.13522167E-02  0.18885935E-02 
    3    2    0.84084416E-03  0.11001086E-04 
    4    2    0.50324203E-02  0.72672396E-03 
    1    3   -0.23937201E-02 -0.19930087E-02 
    2    3   -0.95564647E-03  0.10958364E-02 
    3    3    0.34215526E-02 -0.10743440E-02 
    4    3   -0.16464448E-02  0.54531773E-03 
    1    4    0.24370868E-02  0.18369010E-02 
    2    4   -0.23092844E-02 -0.40166071E-02 
    3    4    0.22677495E-02  0.31971104E-04 
    4    4   -0.14548229E-02  0.10931793E-03 

   -2    2    2
    1    1    0.34355603E-02 -0.44365496E-17 
    2    1    0.26308325E-03 -0.23060545E-02 
    3    1   -0.12989944E-02 -0.21818158E-03 
    4    1    0.82559131E-03 -0.18459109E-02 
    1    2    0.26308325E-03  0.23060545E-02 
    2    2    0.24669543E-02  0.14443775E-17 
    3    2   -0.15018552E-02  0.43950707E-03 
    4    2    0.21451258E-02 -0.52623931E-03 
    1    3   -0.12989944E-02  0.21818158E-03 
    2    3   -0.15018552E-02 -0.43950707E-03 
    3    3    0.33571969E-02 -0.45866272E-18 
    4    3   -0.84297514E-03 -0.68534790E-04 
    1    4    0.82559131E-03  0.18459109E-02 
    2    4    0.21451258E-02  0.52623931E-03 
    3    4   -0.84297514E-03  0.68534790E-04 
    4    4    0.37713149E-02 -0.12501869E-16 

   -1   -2    1
    1    1    0.13898096E-02  0.13804548E-02 
    2    1   -0.20579501E-02 -0.85818655E-02 
    3    1   -0.10948503E-02  0.15824783E-02 
    4    1   -0.88660840E-03  0.24736736E-03 
    1    2   -0.10532805E-01  0.63191017E-03 
    2    2   -0.60993346E-02 -0.31517727E-02 
    3    2    0.61727127E-02 -0.49008131E-02 
    4    2    0.93116951E-03  0.42855983E-02 
    1    3   -0.13457651E-02  0.22392995E-02 
    2    3    0.77173556E-02  0.94627496E-02 
    3    3   -0.11481036E-02  0.26200487E-03 
    4    3   -0.44618309E-03 -0.14147677E-02 
    1    4   -0.21359090E-01 -0.16725890E-01 
    2    4    0.16129455E-01  0.64080226E-02 
    3    4   -0.31606203E-02 -0.21162680E-02 
    4    4    0.67186781E-02  0.15093131E-02 

   -1   -2    2
    1    1   -0.35866089E-02  0.35915212E-03 
    2    1   -0.26137428E-02 -0.24474494E-04 
    3    1    0.19168999E-02 -0.28531463E-03 
    4    1    0.86355702E-03 -0.23806455E-02 
    1    2    0.40641751E-02 -0.53669334E-02 
    2    2    0.15835958E-02  0.25588024E-02 
    3    2   -0.57380794E-04  0.46378780E-03 
    4    2   -0.31826395E-02 -0.20143800E-02 
    1    3    0.36489852E-03 -0.44876981E-03 
    2    3    0.55134932E-03  0.39265274E-02 
    3    3    0.26369872E-02 -0.24837712E-03 
    4    3    0.79714165E-03 -0.33354813E-03 
    1    4    0.10247423E-02  0.35558325E-02 
    2    4   -0.16377720E-01  0.24354044E-03 
    3    4    0.26715120E-02  0.13566230E-02 
    4    4    0.22707543E-03 -0.26695774E-02 

   -1   -1   -1
    1    1    0.51893360E-02  0.29716277E-02 
    2    1    0.55999222E-02 -0.15764173E-01 
    3    1    0.26188195E-02 -0.27179103E-02 
    4    1    0.25799029E-02 -0.92672368E-03 
    1    2   -0.12823370E-01  0.33464265E-02 
    2    2    0.11481721E-02 -0.30363826E-02 
    3    2   -0.12233403E-01  0.70187926E-04 
    4    2   -0.14206415E-02 -0.39022992E-02 
    1    3   -0.32195889E-02  0.30053643E-02 
    2    3   -0.44183432E-02 -0.64618672E-03 
    3    3    0.13669921E-01  0.71388369E-03 
    4    3    0.22439957E-02 -0.44452312E-03 
    1    4    0.46439474E-02  0.34360217E-02 
    2    4    0.55428966E-02  0.72297952E-02 
    3    4   -0.99484409E-03  0.41439708E-02 
    4    4    0.21383433E-02 -0.64912879E-03 

   -1   -1    0
    1    1    0.13443857E-01  0.57712575E-03 
    2    1   -0.79723377E-02 -0.72117537E-02 
    3    1   -0.13188653E-01  0.47517522E-03 
    4    1   -0.59928857E-02  0.61188527E-02 
    1    2   -0.68466342E-02 -0.14209608E-02 
    2    2   -0.79656891E-02 -0.85599917E-02 
    3    2   -0.33583243E-01 -0.90590357E-02 
    4    2    0.10426286E-02 -0.52850620E-02 
    1    3   -0.42164877E-02  0.54161688E-02 
    2    3   -0.62431711E-03 -0.49192056E-03 
    3    3   -0.49878741E-02 -0.10919883E-03 
    4    3   -0.87456966E-02  0.10193123E-02 
    1    4   -0.17524787E-01 -0.86677867E-02 
    2    4    0.10921046E+00  0.10678120E+00 
    3    4    0.54262092E-01  0.23116518E-01 
    4    4   -0.61844389E-02  0.80920648E-02 

   -1   -1    1
    1    1   -0.13458912E-01 -0.11174874E-01 
    2    1    0.75781776E-02  0.40357836E-02 
    3    1   -0.13402615E-01  0.11461722E-01 
    4    1   -0.29034178E-02  0.45134608E-02 
    1    2   -0.13995809E-01 -0.67457374E-01 
    2    2   -0.87478614E-04  0.65911862E-02 
    3    2   -0.16717437E-01 -0.22557448E-01 
    4    2   -0.25749979E-01 -0.14461488E-01 
    1    3   -0.19175343E-01 -0.24488520E-01 
    2    3    0.33209608E-02  0.15369675E-02 
    3    3    0.30869425E-02 -0.32048634E-03 
    4    3   -0.43227934E-02  0.14415927E-02 
    1    4    0.18748194E-01  0.32540886E-01 
    2    4    0.11031391E-01  0.18359701E-01 
    3    4   -0.22965914E-01 -0.15905268E-02 
    4    4    0.37793041E-02  0.49041744E-02 

   -1   -1    2
    1    1    0.51858179E-02  0.34087218E-02 
    2    1   -0.51751404E-03  0.14513702E-02 
    3    1   -0.23181119E-02 -0.35397614E-02 
    4    1    0.14893712E-03  0.79288108E-03 
    1    2   -0.22263664E-01  0.24964533E-01 
    2    2   -0.42525410E-02 -0.10655763E-02 
    3    2   -0.36614212E-02  0.75959953E-02 
    4    2    0.91605909E-02  0.10282331E-01 
    1    3   -0.42633596E-02  0.28118364E-02 
    2    3   -0.17236424E-02  0.52462476E-03 
    3    3    0.17548118E-02 -0.67393306E-03 
    4    3    0.11090351E-02 -0.62628080E-03 
    1    4   -0.27456164E-02  0.15196239E-02 
    2    4    0.15865833E-02 -0.11403310E-01 
    3    4    0.20456572E-02  0.58910601E-02 
    4    4   -0.83822340E-02 -0.16692125E-02 

   -1   -1    3
    1    1    0.51893360E-02  0.29716277E-02 
    2    1    0.55999222E-02 -0.15764173E-01 
    3    1    0.26188195E-02 -0.27179103E-02 
    4    1    0.25799029E-02 -0.92672368E-03 
    1    2   -0.12823370E-01  0.33464265E-02 
    2    2    0.11481721E-02 -0.30363826E-02 
    3    2   -0.12233403E-01  0.70187926E-04 
    4    2   -0.14206415E-02 -0.39022992E-02 
    1    3   -0.32195889E-02  0.30053643E-02 
    2    3   -0.44183432E-02 -0.64618672E-03 
    3    3    0.13669921E-01  0.71388369E-03 
    4    3    0.22439957E-02 -0.44452312E-03 
    1    4    0.46439474E-02  0.34360217E-02 
    2    4    0.55428966E-02  0.72297952E-02 
    3    4   -0.99484409E-03  0.41439708E-02 
    4    4    0.21383433E-02 -0.64912879E-03 

   -1    0   -1
    1    1   -0.34723685E-01 -0.55830810E-02 
    2    1   -0.54105177E-02 -0.80915413E-02 
    3    1   -0.29549961E-02 -0.42540487E-01 
    4    1    0.97834091E-02  0.61058408E-02 
    1    2    0.12408349E-01  0.19145953E-01 
    2    2    0.56204029E-03  0.40450077E-02 
    3    2    0.22905596E-01  0.94270879E-02 
    4    2    0.36519483E-02  0.61120496E-02 
    1    3   -0.16433356E-01 -0.45803670E-02 
    2    3   -0.10686922E-01 -0.12220797E-01 
    3    3   -0.55462600E-02  0.14803105E-01 
    4    3    0.27874259E-04 -0.37606620E-03 
    1    4    0.12950593E+00 -0.10989493E+00 
    2    4    0.97402973E-02 -0.22748622E-01 
    3    4    0.43322112E-01  0.26449788E-01 
    4    4    0.34013760E-01 -0.13265032E-01 

   -1    0    0
    1    1    0.42096332E-01 -0.45788129E-01 
    2    1    0.53157924E-02  0.82447370E-01 
    3    1   -0.42465944E-01  0.74829594E-02 
    4    1    0.14328692E-01  0.17741834E-01 
    1    2    0.47988370E-01 -0.65590680E-01 
    2    2    0.48855657E-01 -0.25606535E-02 
    3    2   -0.35798019E-02  0.30232627E-01 
    4    2    0.12862074E-01 -0.44604638E-02 
    1    3    0.65853527E-01  0.81108415E-01 
    2    3   -0.56812465E-01  0.72128195E-01 
    3    3    0.40099871E+00 -0.21137397E-01 
    4    3    0.15347976E+00 -0.31727800E-01 
    1    4    0.31855841E+00  0.12298416E+00 
    2    4   -0.87572437E-01  0.35336336E+00 
    3    4    0.12220539E+01  0.23395672E+00 
    4    4    0.11011597E+00  0.69486179E-01 

   -1    0    1
    1    1    0.30475306E+00 -0.25223409E-01 
    2    1   -0.87887226E-03  0.34061462E-01 
    3    1   -0.54506603E-05 -0.25914338E-01 
    4    1    0.85168482E-01 -0.10638018E+00 
    1    2   -0.48707894E-01  0.91177212E-01 
    2    2   -0.36753369E-01 -0.52970545E-02 
    3    2    0.47596202E-02 -0.27703621E-01 
    4    2    0.10112276E-01  0.14847177E-03 
    1    3   -0.64478045E-01 -0.97454889E-01 
    2    3   -0.21426379E-01  0.20427973E-01 
    3    3   -0.33326809E-01  0.12045001E-01 
    4    3   -0.10934603E-01  0.42199466E-02 
    1    4    0.78231487E+00  0.93622407E+00 
    2    4   -0.41616866E-01  0.95954461E-01 
    3    4    0.59315052E-01 -0.89907844E-02 
    4    4    0.36739379E+00  0.18475462E-01 

   -1    0    2
    1    1    0.21356692E-01 -0.39612163E-02 
    2    1   -0.18455890E-01 -0.17399739E-02 
    3    1    0.19727286E-02  0.11951952E-02 
    4    1    0.22960952E-01 -0.39429191E-02 
    1    2    0.48250754E-01 -0.14073258E-01 
    2    2    0.27454087E-02  0.20149499E-02 
    3    2    0.12592064E-01 -0.10997036E-01 
    4    2    0.27334536E-02 -0.90766637E-02 
    1    3   -0.49419525E-02  0.36332383E-01 
    2    3   -0.11480003E-01 -0.16137114E-02 
    3    3   -0.67853930E-02  0.14047500E-01 
    4    3   -0.58379261E-02  0.32965608E-02 
    1    4    0.48829337E-01 -0.24924772E+00 
    2    4    0.66650532E-02 -0.50657863E-02 
    3    4   -0.37687568E-01 -0.47573445E-02 
    4    4   -0.23010853E-01 -0.12101234E-01 

   -1    1   -2
    1    1   -0.10309151E-01 -0.21663073E-02 
    2    1    0.14834244E-01  0.18755183E-02 
    3    1    0.39255198E-03  0.92733955E-02 
    4    1   -0.18921418E-02  0.98946157E-03 
    1    2    0.47734583E-02 -0.21815984E-02 
    2    2    0.12832719E-02  0.16711743E-01 
    3    2    0.59813068E-02 -0.13325890E-02 
    4    2    0.14723317E-03 -0.11573073E-02 
    1    3    0.44105824E-02 -0.95752045E-02 
    2    3   -0.43345309E-02 -0.17941459E-02 
    3    3    0.14093732E-02 -0.39783730E-03 
    4    3    0.17061863E-02  0.39230192E-02 
    1    4    0.38413776E-02 -0.70205399E-02 
    2    4    0.36136230E-01 -0.37069040E-01 
    3    4   -0.47672872E-02  0.44278421E-02 
    4    4    0.84775550E-02 -0.14147599E-01 

   -1    1   -1
    1    1    0.22128802E-02 -0.78627321E-04 
    2    1    0.63302578E-01  0.36274718E-01 
    3    1    0.18244010E-01 -0.19436223E-01 
    4    1    0.49606175E-02 -0.27802291E-01 
    1    2   -0.44227369E-02  0.55618011E-03 
    2    2   -0.52615183E-02  0.62553452E-02 
    3    2    0.59950047E-02  0.15643996E-01 
    4    2    0.48765786E-02  0.44478578E-02 
    1    3    0.74326800E-02  0.68956373E-03 
    2    3    0.63457499E-02 -0.11907876E-01 
    3    3   -0.88043541E-02 -0.36692383E-02 
    4    3   -0.86166023E-02  0.62858726E-02 
    1    4    0.22981947E-01 -0.23739562E-01 
    2    4   -0.34513126E-01  0.44564216E-01 
    3    4   -0.23122282E-01 -0.64261824E-02 
    4    4    0.51728480E-02 -0.25074796E-02 

   -1    1    0
    1    1   -0.44696052E-01  0.20323545E-03 
    2    1    0.22163823E-02 -0.14753554E+00 
    3    1    0.21825119E-01 -0.14068248E-01 
    4    1   -0.68404851E-02  0.14787123E-01 
    1    2    0.68556479E-02 -0.17493036E-01 
    2    2    0.29963682E+00 -0.33703098E-01 
    3    2   -0.16102870E-01  0.24531007E-02 
    4    2   -0.85247393E-01 -0.10734466E+00 
    1    3    0.18034037E-01  0.12032625E-01 
    2    3    0.91409853E-01 -0.87650610E-01 
    3    3   -0.35187157E-01  0.17928196E-02 
    4    3   -0.86441384E-02  0.39846561E-02 
    1    4    0.66808371E-01  0.21940723E-01 
    2    4   -0.75275854E+00  0.92949039E+00 
    3    4    0.65697928E-01 -0.18235679E-01 
    4    4    0.38231306E+00  0.31707043E-01 

   -1    1    1
    1    1   -0.55285206E-03  0.36163136E-02 
    2    1    0.33890067E-01  0.24792565E-02 
    3    1    0.66009386E-02  0.36651562E-02 
    4    1   -0.23862618E-02 -0.42158075E-03 
    1    2   -0.31426800E-01  0.15652546E-01 
    2    2    0.44414292E-02  0.79930904E-02 
    3    2    0.30566214E-02 -0.13341681E-01 
    4    2   -0.65557795E-04  0.44160501E-03 
    1    3    0.15058557E-01  0.19134470E-01 
    2    3   -0.13505640E-01  0.17167464E-01 
    3    3   -0.82172011E-02  0.18124948E-02 
    4    3    0.16892373E-01 -0.21406550E-02 
    1    4    0.15131038E-01 -0.17051526E-01 
    2    4   -0.34604249E-01  0.54287923E-01 
    3    4    0.10028066E-01  0.60579988E-02 
    4    4   -0.23515203E-02 -0.13421899E-01 

   -1    1    2
    1    1   -0.10309151E-01 -0.21663073E-02 
    2    1    0.14834244E-01  0.18755183E-02 
    3    1    0.39255198E-03  0.92733955E-02 
    4    1   -0.18921418E-02  0.98946157E-03 
    1    2    0.47734583E-02 -0.21815984E-02 
    2    2    0.12832719E-02  0.16711743E-01 
    3    2    0.59813068E-02 -0.13325890E-02 
    4    2    0.14723317E-03 -0.11573073E-02 
    1    3    0.44105824E-02 -0.95752045E-02 
    2    3   -0.43345309E-02 -0.17941459E-02 
    3    3    0.14093732E-02 -0.39783730E-03 
    4    3    0.17061863E-02  0.39230192E-02 
    1    4    0.38413776E-02 -0.70205399E-02 
    2    4    0.36136230E-01 -0.37069040E-01 
    3    4   -0.47672872E-02  0.44278421E-02 
    4    4    0.84775550E-02 -0.14147599E-01 

   -1    2   -2
    1    1   -0.35866089E-02  0.35915212E-03 
    2    1   -0.26137428E-02 -0.24474494E-04 
    3    1    0.19168999E-02 -0.28531463E-03 
    4    1    0.86355702E-03 -0.23806455E-02 
    1    2    0.40641751E-02 -0.53669334E-02 
    2    2    0.15835958E-02  0.25588024E-02 
    3    2   -0.57380794E-04  0.46378780E-03 
    4    2   -0.31826395E-02 -0.20143800E-02 
    1    3    0.36489852E-03 -0.44876981E-03 
    2    3    0.55134932E-03  0.39265274E-02 
    3    3    0.26369872E-02 -0.24837712E-03 
    4    3    0.79714165E-03 -0.33354813E-03 
    1    4    0.10247423E-02  0.35558325E-02 
    2    4   -0.16377720E-01  0.24354044E-03 
    3    4    0.26715120E-02  0.13566230E-02 
    4    4    0.22707543E-03 -0.26695774E-02 

   -1    2   -1
    1    1   -0.84128853E-02  0.83609236E-03 
    2    1   -0.48215339E-03  0.11913762E-01 
    3    1    0.82153353E-03 -0.34216541E-02 
    4    1    0.29758020E-03  0.35720188E-02 
    1    2   -0.16966692E-02  0.52019847E-03 
    2    2    0.59862899E-02  0.11988313E-02 
    3    2   -0.15440111E-02  0.67803245E-02 
    4    2   -0.35145479E-03 -0.69811531E-03 
    1    3    0.32780869E-02  0.27278921E-02 
    2    3    0.51663821E-02 -0.20157958E-01 
    3    3    0.38714424E-02  0.99494988E-04 
    4    3   -0.22602551E-02  0.99241951E-03 
    1    4   -0.62530758E-02  0.17298303E-02 
    2    4    0.83578357E-02 -0.85499152E-02 
    3    4    0.30719022E-03  0.13432960E-02 
    4    4   -0.71389922E-02 -0.21344186E-02 

   -1    2    0
    1    1    0.50154973E-02  0.48416514E-02 
    2    1   -0.14576126E-01 -0.51235511E-02 
    3    1   -0.21421219E-02  0.77789325E-02 
    4    1   -0.53205841E-02  0.30519177E-02 
    1    2    0.41835437E-02  0.98424294E-02 
    2    2    0.13589891E-01 -0.16803029E-01 
    3    2   -0.34660181E-02  0.36658406E-02 
    4    2    0.44770456E-02 -0.16049169E-01 
    1    3   -0.18447430E-02 -0.55935427E-03 
    2    3   -0.22070969E-01  0.17671673E-01 
    3    3   -0.57690379E-02  0.34728689E-02 
    4    3   -0.37808365E-02 -0.62579247E-03 
    1    4   -0.45558401E-02 -0.66858723E-02 
    2    4    0.19756405E+00  0.70617936E-02 
    3    4   -0.13662031E-01  0.79263459E-03 
    4    4   -0.18530495E-01  0.84885088E-02 

   -1    2    1
    1    1    0.13898096E-02  0.13804548E-02 
    2    1   -0.20579501E-02 -0.85818655E-02 
    3    1   -0.10948503E-02  0.15824783E-02 
    4    1   -0.88660840E-03  0.24736736E-03 
    1    2   -0.10532805E-01  0.63191017E-03 
    2    2   -0.60993346E-02 -0.31517727E-02 
    3    2    0.61727127E-02 -0.49008131E-02 
    4    2    0.93116951E-03  0.42855983E-02 
    1    3   -0.13457651E-02  0.22392995E-02 
    2    3    0.77173556E-02  0.94627496E-02 
    3    3   -0.11481036E-02  0.26200487E-03 
    4    3   -0.44618309E-03 -0.14147677E-02 
    1    4   -0.21359090E-01 -0.16725890E-01 
    2    4    0.16129455E-01  0.64080226E-02 
    3    4   -0.31606203E-02 -0.21162680E-02 
    4    4    0.67186781E-02  0.15093131E-02 

   -1    3   -1
    1    1    0.51893360E-02  0.29716277E-02 
    2    1    0.55999222E-02 -0.15764173E-01 
    3    1    0.26188195E-02 -0.27179103E-02 
    4    1    0.25799029E-02 -0.92672368E-03 
    1    2   -0.12823370E-01  0.33464265E-02 
    2    2    0.11481721E-02 -0.30363826E-02 
    3    2   -0.12233403E-01  0.70187926E-04 
    4    2   -0.14206415E-02 -0.39022992E-02 
    1    3   -0.32195889E-02  0.30053643E-02 
    2    3   -0.44183432E-02 -0.64618672E-03 
    3    3    0.13669921E-01  0.71388369E-03 
    4    3    0.22439957E-02 -0.44452312E-03 
    1    4    0.46439474E-02  0.34360217E-02 
    2    4    0.55428966E-02  0.72297952E-02 
    3    4   -0.99484409E-03  0.41439708E-02 
    4    4    0.21383433E-02 -0.64912879E-03 

    0   -2    0
    1    1    0.30106204E-01  0.70460082E-16 
    2    1   -0.15725367E+00  0.59158019E-02 
    3    1    0.20034702E-01 -0.26222087E-01 
    4    1   -0.13474699E-01  0.41828783E-02 
    1    2   -0.15725367E+00 -0.59158019E-02 
    2    2    0.18573618E-01  0.10658309E-15 
    3    2   -0.22042712E+00  0.15617080E+00 
    4    2    0.14134672E+00 -0.80333290E-01 
    1    3    0.20034702E-01  0.26222087E-01 
    2    3   -0.22042712E+00 -0.15617080E+00 
    3    3    0.11962496E+00  0.12117810E-15 
    4    3   -0.19170291E-01 -0.19740427E-01 
    1    4   -0.13474699E-01 -0.41828783E-02 
    2    4    0.14134672E+00  0.80333290E-01 
    3    4   -0.19170291E-01  0.19740427E-01 
    4    4    0.26569465E-01  0.70969945E-16 

    0   -2    1
    1    1    0.26308818E-01  0.66120555E-02 
    2    1   -0.31338137E-01 -0.15602083E-01 
    3    1    0.52161640E-02  0.20489423E-02 
    4    1   -0.38979727E-03 -0.37409991E-02 
    1    2   -0.82997910E-01 -0.13530887E+00 
    2    2   -0.31560545E-01 -0.49310626E-02 
    3    2   -0.91536469E-02 -0.14366029E-01 
    4    2   -0.12504361E-02 -0.16769162E-01 
    1    3    0.15103985E-01  0.11533187E-01 
    2    3   -0.13659627E-01  0.48841329E-03 
    3    3   -0.85990432E-02  0.16337578E-02 
    4    3   -0.51367780E-02  0.37259403E-02 
    1    4   -0.73026332E-02 -0.47430670E-03 
    2    4   -0.23651716E-02  0.49044675E-03 
    3    4    0.27723210E-02  0.80945604E-03 
    4    4    0.81566252E-02 -0.33147507E-02 

    0   -2    2
    1    1    0.83621831E-01 -0.14238670E-16 
    2    1   -0.46991616E-01 -0.19525867E+00 
    3    1    0.20491740E-02 -0.89547529E-03 
    4    1    0.35516934E-03 -0.53317595E-03 
    1    2   -0.46991616E-01  0.19525867E+00 
    2    2    0.11877045E+00  0.12371840E-16 
    3    2    0.94061867E-02  0.21865356E-02 
    4    2    0.49161220E-02 -0.36711393E-02 
    1    3    0.20491740E-02  0.89547529E-03 
    2    3    0.94061867E-02 -0.21865356E-02 
    3    3   -0.40851465E-02 -0.13423988E-16 
    4    3    0.51792469E-02  0.23498200E-02 
    1    4    0.35516934E-03  0.53317595E-03 
    2    4    0.49161220E-02  0.36711393E-02 
    3    4    0.51792469E-02 -0.23498200E-02 
    4    4   -0.34328796E-02 -0.18415508E-16 

    0   -1   -1
    1    1   -0.20230614E-01 -0.22073647E-02 
    2    1   -0.90036475E-01 -0.72135045E-03 
    3    1   -0.36435152E-02 -0.25852325E-01 
    4    1   -0.53796196E-02  0.10541951E-02 
    1    2    0.12346217E+00  0.23368743E-01 
    2    2    0.25316384E-01 -0.97196552E-02 
    3    2    0.45853105E-02  0.41548604E-01 
    4    2    0.26876674E-02  0.10288460E-01 
    1    3   -0.10245175E-01 -0.51228348E-02 
    2    3    0.25964402E-02 -0.45567071E-02 
    3    3   -0.82422027E-02  0.15500541E-01 
    4    3    0.59638351E-02 -0.10342550E-01 
    1    4    0.16289661E-01 -0.36307053E-02 
    2    4    0.44861899E-02 -0.10446933E-01 
    3    4    0.21953324E-01 -0.81926920E-02 
    4    4   -0.25377132E-02 -0.35735212E-02 

    0   -1    0
    1    1    0.33544991E-01 -0.25871684E-01 
    2    1   -0.15054778E+00 -0.89577436E-01 
    3    1   -0.36873518E-01 -0.46131383E-02 
    4    1   -0.17580682E-01  0.22770794E-01 
    1    2    0.22244386E-02  0.90508210E-01 
    2    2    0.29156122E+00  0.40905438E-01 
    3    2    0.38974299E+00  0.10278974E+01 
    4    2    0.17937769E-01 -0.10968697E+00 
    1    3    0.69513914E-01  0.88746026E-01 
    2    3   -0.10787804E+00 -0.34092503E+00 
    3    3    0.40803405E+00 -0.21307958E-01 
    4    3   -0.29299834E-01 -0.14612182E-01 
    1    4   -0.80679234E-02 -0.71264064E-01 
    2    4    0.31987620E-01  0.18520824E+00 
    3    4    0.54566429E-01  0.37655496E-01 
    4    4   -0.13107360E+00  0.62742035E-02 

    0   -1    1
    1    1    0.31692191E+00 -0.15246950E-01 
    2    1   -0.36892736E-01 -0.17917190E+00 
    3    1   -0.32969662E-02 -0.24491194E-01 
    4    1   -0.19404384E-01  0.49035813E-02 
    1    2   -0.26047853E+00  0.12897020E+01 
    2    2    0.36710444E+00  0.65192736E-02 
    3    2    0.47581053E-01  0.54813013E-01 
    4    2   -0.36483652E-01 -0.48602766E-01 
    1    3   -0.56233992E-01 -0.80706448E-01 
    2    3   -0.10424806E-01  0.34710328E-03 
    3    3   -0.30967280E-01  0.74224788E-02 
    4    3   -0.25248653E-01 -0.65019491E-02 
    1    4    0.61530632E-01  0.96968220E-01 
    2    4    0.25989357E-02 -0.15009356E-01 
    3    4   -0.23315551E-01 -0.16053661E-01 
    4    4   -0.50992410E-01  0.13051979E-02 

    0   -1    2
    1    1    0.21221061E-01 -0.15851403E-01 
    2    1    0.25388602E-01 -0.47550612E-01 
    3    1   -0.38925095E-02  0.54437956E-04 
    4    1    0.26704686E-02 -0.98460884E-02 
    1    2    0.18561208E+00 -0.10732708E+00 
    2    2   -0.19757211E-01  0.65441156E-03 
    3    2   -0.21284554E-01 -0.38169396E-01 
    4    2    0.36778433E-03  0.28739437E-02 
    1    3    0.53792080E-03  0.30762408E-01 
    2    3    0.29020706E-03  0.11921773E-01 
    3    3   -0.77219710E-02  0.12778969E-01 
    4    3   -0.87139546E-03 -0.97399516E-02 
    1    4    0.17684955E-01 -0.43158982E-01 
    2    4   -0.10538849E-01 -0.43656577E-02 
    3    4   -0.41782339E-02 -0.16474294E-01 
    4    4    0.56397563E-03  0.24180223E-02 

    0    0   -2
    1    1   -0.88807174E-01  0.13600552E-15 
    2    1    0.20410025E+00 -0.34516978E-01 
    3    1   -0.21267472E+00 -0.27521398E+00 
    4    1    0.15271088E+00  0.15574913E+00 
    1    2    0.20410025E+00  0.34516978E-01 
    2    2    0.67393848E-01  0.48825954E-16 
    3    2   -0.39981616E-01 -0.63872430E-03 
    4    2    0.13495248E-01  0.18531800E-01 
    1    3   -0.21267472E+00  0.27521398E+00 
    2    3   -0.39981616E-01  0.63872430E-03 
    3    3    0.14050946E+00  0.11855256E-15 
    4    3   -0.20050198E-01 -0.32335305E-01 
    1    4    0.15271088E+00 -0.15574913E+00 
    2    4    0.13495248E-01 -0.18531800E-01 
    3    4   -0.20050198E-01  0.32335305E-01 
    4    4    0.75778123E-01  0.49709370E-16 

    0    0   -1
    1    1    0.43874070E+00 -0.12688762E-01 
    2    1    0.12333623E+00  0.73048404E-02 
    3    1   -0.95822050E+00  0.47711738E+00 
    4    1    0.14242520E+00  0.15909081E+00 
    1    2    0.15172453E+00  0.17725614E+00 
    2    2   -0.12508286E+00 -0.41201382E-02 
    3    2   -0.13085215E-01  0.65202821E-01 
    4    2    0.11593573E-01  0.31263026E-01 
    1    3   -0.41417966E+00  0.70958144E-01 
    2    3   -0.69488000E-01  0.37280205E-01 
    3    3    0.43431130E+00 -0.15638978E-01 
    4    3   -0.49998120E-01 -0.37547098E-01 
    1    4    0.25500631E+00 -0.11841278E-01 
    2    4    0.31019089E-01  0.14783545E-01 
    3    4    0.52073499E-01  0.28538270E-01 
    4    4   -0.14590248E+00  0.32447878E-01 

    0    0    0
    1    1    0.10881563E+01  0.42504113E-17 
    2    1   -0.22846710E+00 -0.12052234E+01 
    3    1   -0.94553248E+00  0.55133656E+00 
    4    1    0.78712869E+00 -0.92690069E+00 
    1    2   -0.22846710E+00  0.12052234E+01 
    2    2    0.12045748E+01  0.26232610E-17 
    3    2    0.40803221E+00  0.11251017E+01 
    4    2   -0.79447941E+00 -0.98659916E+00 
    1    3   -0.94553248E+00 -0.55133656E+00 
    2    3    0.40803221E+00 -0.11251017E+01 
    3    3    0.15718923E+01 -0.48136882E-17 
    4    3    0.11928711E+01 -0.31501683E+00 
    1    4    0.78712869E+00  0.92690069E+00 
    2    4   -0.79447941E+00  0.98659916E+00 
    3    4    0.11928711E+01  0.31501683E+00 
    4    4    0.13127600E+01 -0.11321734E-16 

    0    0    1
    1    1    0.43874070E+00  0.12688762E-01 
    2    1    0.15172453E+00 -0.17725614E+00 
    3    1   -0.41417966E+00 -0.70958144E-01 
    4    1    0.25500631E+00  0.11841278E-01 
    1    2    0.12333623E+00 -0.73048404E-02 
    2    2   -0.12508286E+00  0.41201382E-02 
    3    2   -0.69488000E-01 -0.37280205E-01 
    4    2    0.31019089E-01 -0.14783545E-01 
    1    3   -0.95822050E+00 -0.47711738E+00 
    2    3   -0.13085215E-01 -0.65202821E-01 
    3    3    0.43431130E+00  0.15638978E-01 
    4    3    0.52073499E-01 -0.28538270E-01 
    1    4    0.14242520E+00 -0.15909081E+00 
    2    4    0.11593573E-01 -0.31263026E-01 
    3    4   -0.49998120E-01  0.37547098E-01 
    4    4   -0.14590248E+00 -0.32447878E-01 

    0    0    2
    1    1   -0.88807174E-01 -0.14045075E-15 
    2    1    0.20410025E+00 -0.34516978E-01 
    3    1   -0.21267472E+00 -0.27521398E+00 
    4    1    0.15271088E+00  0.15574913E+00 
    1    2    0.20410025E+00  0.34516978E-01 
    2    2    0.67393848E-01 -0.44304492E-16 
    3    2   -0.39981616E-01 -0.63872430E-03 
    4    2    0.13495248E-01  0.18531800E-01 
    1    3   -0.21267472E+00  0.27521398E+00 
    2    3   -0.39981616E-01  0.63872430E-03 
    3    3    0.14050946E+00 -0.13253242E-15 
    4    3   -0.20050198E-01 -0.32335305E-01 
    1    4    0.15271088E+00 -0.15574913E+00 
    2    4    0.13495248E-01 -0.18531800E-01 
    3    4   -0.20050198E-01  0.32335305E-01 
    4    4    0.75778123E-01 -0.39533698E-16 

    0    1   -2
    1    1    0.21221061E-01  0.15851403E-01 
    2    1    0.18561208E+00  0.10732708E+00 
    3    1    0.53792080E-03 -0.30762408E-01 
    4    1    0.17684955E-01  0.43158982E-01 
    1    2    0.25388602E-01  0.47550612E-01 
    2    2   -0.19757211E-01 -0.65441156E-03 
    3    2    0.29020706E-03 -0.11921773E-01 
    4    2   -0.10538849E-01  0.43656577E-02 
    1    3   -0.38925095E-02 -0.54437956E-04 
    2    3   -0.21284554E-01  0.38169396E-01 
    3    3   -0.77219710E-02 -0.12778969E-01 
    4    3   -0.41782339E-02  0.16474294E-01 
    1    4    0.26704686E-02  0.98460884E-02 
    2    4    0.36778433E-03 -0.28739437E-02 
    3    4   -0.87139546E-03  0.97399516E-02 
    4    4    0.56397563E-03 -0.24180223E-02 

    0    1   -1
    1    1    0.31692191E+00  0.15246950E-01 
    2    1   -0.26047853E+00 -0.12897020E+01 
    3    1   -0.56233992E-01  0.80706448E-01 
    4    1    0.61530632E-01 -0.96968220E-01 
    1    2   -0.36892736E-01  0.17917190E+00 
    2    2    0.36710444E+00 -0.65192736E-02 
    3    2   -0.10424806E-01 -0.34710328E-03 
    4    2    0.25989357E-02  0.15009356E-01 
    1    3   -0.32969662E-02  0.24491194E-01 
    2    3    0.47581053E-01 -0.54813013E-01 
    3    3   -0.30967280E-01 -0.74224788E-02 
    4    3   -0.23315551E-01  0.16053661E-01 
    1    4   -0.19404384E-01 -0.49035813E-02 
    2    4   -0.36483652E-01  0.48602766E-01 
    3    4   -0.25248653E-01  0.65019491E-02 
    4    4   -0.50992410E-01 -0.13051979E-02 

    0    1    0
    1    1    0.33544991E-01  0.25871684E-01 
    2    1    0.22244386E-02 -0.90508210E-01 
    3    1    0.69513914E-01 -0.88746026E-01 
    4    1   -0.80679234E-02  0.71264064E-01 
    1    2   -0.15054778E+00  0.89577436E-01 
    2    2    0.29156122E+00 -0.40905438E-01 
    3    2   -0.10787804E+00  0.34092503E+00 
    4    2    0.31987620E-01 -0.18520824E+00 
    1    3   -0.36873518E-01  0.46131383E-02 
    2    3    0.38974299E+00 -0.10278974E+01 
    3    3    0.40803405E+00  0.21307958E-01 
    4    3    0.54566429E-01 -0.37655496E-01 
    1    4   -0.17580682E-01 -0.22770794E-01 
    2    4    0.17937769E-01  0.10968697E+00 
    3    4   -0.29299834E-01  0.14612182E-01 
    4    4   -0.13107360E+00 -0.62742035E-02 

    0    1    1
    1    1   -0.20230614E-01  0.22073647E-02 
    2    1    0.12346217E+00 -0.23368743E-01 
    3    1   -0.10245175E-01  0.51228348E-02 
    4    1    0.16289661E-01  0.36307053E-02 
    1    2   -0.90036475E-01  0.72135045E-03 
    2    2    0.25316384E-01  0.97196552E-02 
    3    2    0.25964402E-02  0.45567071E-02 
    4    2    0.44861899E-02  0.10446933E-01 
    1    3   -0.36435152E-02  0.25852325E-01 
    2    3    0.45853105E-02 -0.41548604E-01 
    3    3   -0.82422027E-02 -0.15500541E-01 
    4    3    0.21953324E-01  0.81926920E-02 
    1    4   -0.53796196E-02 -0.10541951E-02 
    2    4    0.26876674E-02 -0.10288460E-01 
    3    4    0.59638351E-02  0.10342550E-01 
    4    4   -0.25377132E-02  0.35735212E-02 

    0    2   -2
    1    1    0.83621831E-01 -0.69282724E-18 
    2    1   -0.46991616E-01 -0.19525867E+00 
    3    1    0.20491740E-02 -0.89547529E-03 
    4    1    0.35516934E-03 -0.53317595E-03 
    1    2   -0.46991616E-01  0.19525867E+00 
    2    2    0.11877045E+00  0.24546252E-17 
    3    2    0.94061867E-02  0.21865356E-02 
    4    2    0.49161220E-02 -0.36711393E-02 
    1    3    0.20491740E-02  0.89547529E-03 
    2    3    0.94061867E-02 -0.21865356E-02 
    3    3   -0.40851465E-02 -0.12666321E-16 
    4    3    0.51792469E-02  0.23498200E-02 
    1    4    0.35516934E-03  0.53317595E-03 
    2    4    0.49161220E-02  0.36711393E-02 
    3    4    0.51792469E-02 -0.23498200E-02 
    4    4   -0.34328796E-02 -0.22801803E-16 

    0    2   -1
    1    1    0.26308818E-01 -0.66120555E-02 
    2    1   -0.82997910E-01  0.13530887E+00 
    3    1    0.15103985E-01 -0.11533187E-01 
    4    1   -0.73026332E-02  0.47430670E-03 
    1    2   -0.31338137E-01  0.15602083E-01 
    2    2   -0.31560545E-01  0.49310626E-02 
    3    2   -0.13659627E-01 -0.48841329E-03 
    4    2   -0.23651716E-02 -0.49044675E-03 
    1    3    0.52161640E-02 -0.20489423E-02 
    2    3   -0.91536469E-02  0.14366029E-01 
    3    3   -0.85990432E-02 -0.16337578E-02 
    4    3    0.27723210E-02 -0.80945604E-03 
    1    4   -0.38979727E-03  0.37409991E-02 
    2    4   -0.12504361E-02  0.16769162E-01 
    3    4   -0.51367780E-02 -0.37259403E-02 
    4    4    0.81566252E-02  0.33147507E-02 

    0    2    0
    1    1    0.30106204E-01 -0.66292680E-16 
    2    1   -0.15725367E+00  0.59158019E-02 
    3    1    0.20034702E-01 -0.26222087E-01 
    4    1   -0.13474699E-01  0.41828783E-02 
    1    2   -0.15725367E+00 -0.59158019E-02 
    2    2    0.18573618E-01 -0.95503899E-16 
    3    2   -0.22042712E+00  0.15617080E+00 
    4    2    0.14134672E+00 -0.80333290E-01 
    1    3    0.20034702E-01  0.26222087E-01 
    2    3   -0.22042712E+00 -0.15617080E+00 
    3    3    0.11962496E+00 -0.13253215E-15 
    4    3   -0.19170291E-01 -0.19740427E-01 
    1    4   -0.13474699E-01 -0.41828783E-02 
    2    4    0.14134672E+00  0.80333290E-01 
    3    4   -0.19170291E-01  0.19740427E-01 
    4    4    0.26569465E-01 -0.46394820E-16 

    1   -3    1
    1    1    0.51893360E-02 -0.29716277E-02 
    2    1   -0.12823370E-01 -0.33464265E-02 
    3    1   -0.32195889E-02 -0.30053643E-02 
    4    1    0.46439474E-02 -0.34360217E-02 
    1    2    0.55999222E-02  0.15764173E-01 
    2    2    0.11481721E-02  0.30363826E-02 
    3    2   -0.44183432E-02  0.64618672E-03 
    4    2    0.55428966E-02 -0.72297952E-02 
    1    3    0.26188195E-02  0.27179103E-02 
    2    3   -0.12233403E-01 -0.70187926E-04 
    3    3    0.13669921E-01 -0.71388369E-03 
    4    3   -0.99484409E-03 -0.41439708E-02 
    1    4    0.25799029E-02  0.92672368E-03 
    2    4   -0.14206415E-02  0.39022992E-02 
    3    4    0.22439957E-02  0.44452312E-03 
    4    4    0.21383433E-02  0.64912879E-03 

    1   -2   -1
    1    1    0.13898096E-02 -0.13804548E-02 
    2    1   -0.10532805E-01 -0.63191017E-03 
    3    1   -0.13457651E-02 -0.22392995E-02 
    4    1   -0.21359090E-01  0.16725890E-01 
    1    2   -0.20579501E-02  0.85818655E-02 
    2    2   -0.60993346E-02  0.31517727E-02 
    3    2    0.77173556E-02 -0.94627496E-02 
    4    2    0.16129455E-01 -0.64080226E-02 
    1    3   -0.10948503E-02 -0.15824783E-02 
    2    3    0.61727127E-02  0.49008131E-02 
    3    3   -0.11481036E-02 -0.26200487E-03 
    4    3   -0.31606203E-02  0.21162680E-02 
    1    4   -0.88660840E-03 -0.24736736E-03 
    2    4    0.93116951E-03 -0.42855983E-02 
    3    4   -0.44618309E-03  0.14147677E-02 
    4    4    0.67186781E-02 -0.15093131E-02 

    1   -2    0
    1    1    0.50154973E-02 -0.48416514E-02 
    2    1    0.41835437E-02 -0.98424294E-02 
    3    1   -0.18447430E-02  0.55935427E-03 
    4    1   -0.45558401E-02  0.66858723E-02 
    1    2   -0.14576126E-01  0.51235511E-02 
    2    2    0.13589891E-01  0.16803029E-01 
    3    2   -0.22070969E-01 -0.17671673E-01 
    4    2    0.19756405E+00 -0.70617936E-02 
    1    3   -0.21421219E-02 -0.77789325E-02 
    2    3   -0.34660181E-02 -0.36658406E-02 
    3    3   -0.57690379E-02 -0.34728689E-02 
    4    3   -0.13662031E-01 -0.79263459E-03 
    1    4   -0.53205841E-02 -0.30519177E-02 
    2    4    0.44770456E-02  0.16049169E-01 
    3    4   -0.37808365E-02  0.62579247E-03 
    4    4   -0.18530495E-01 -0.84885088E-02 

    1   -2    1
    1    1   -0.84128853E-02 -0.83609236E-03 
    2    1   -0.16966692E-02 -0.52019847E-03 
    3    1    0.32780869E-02 -0.27278921E-02 
    4    1   -0.62530758E-02 -0.17298303E-02 
    1    2   -0.48215339E-03 -0.11913762E-01 
    2    2    0.59862899E-02 -0.11988313E-02 
    3    2    0.51663821E-02  0.20157958E-01 
    4    2    0.83578357E-02  0.85499152E-02 
    1    3    0.82153353E-03  0.34216541E-02 
    2    3   -0.15440111E-02 -0.67803245E-02 
    3    3    0.38714424E-02 -0.99494988E-04 
    4    3    0.30719022E-03 -0.13432960E-02 
    1    4    0.29758020E-03 -0.35720188E-02 
    2    4   -0.35145479E-03  0.69811531E-03 
    3    4   -0.22602551E-02 -0.99241951E-03 
    4    4   -0.71389922E-02  0.21344186E-02 

    1   -2    2
    1    1   -0.35866089E-02 -0.35915212E-03 
    2    1    0.40641751E-02  0.53669334E-02 
    3    1    0.36489852E-03  0.44876981E-03 
    4    1    0.10247423E-02 -0.35558325E-02 
    1    2   -0.26137428E-02  0.24474494E-04 
    2    2    0.15835958E-02 -0.25588024E-02 
    3    2    0.55134932E-03 -0.39265274E-02 
    4    2   -0.16377720E-01 -0.24354044E-03 
    1    3    0.19168999E-02  0.28531463E-03 
    2    3   -0.57380794E-04 -0.46378780E-03 
    3    3    0.26369872E-02  0.24837712E-03 
    4    3    0.26715120E-02 -0.13566230E-02 
    1    4    0.86355702E-03  0.23806455E-02 
    2    4   -0.31826395E-02  0.20143800E-02 
    3    4    0.79714165E-03  0.33354813E-03 
    4    4    0.22707543E-03  0.26695774E-02 

    1   -1   -2
    1    1   -0.10309151E-01  0.21663073E-02 
    2    1    0.47734583E-02  0.21815984E-02 
    3    1    0.44105824E-02  0.95752045E-02 
    4    1    0.38413776E-02  0.70205399E-02 
    1    2    0.14834244E-01 -0.18755183E-02 
    2    2    0.12832719E-02 -0.16711743E-01 
    3    2   -0.43345309E-02  0.17941459E-02 
    4    2    0.36136230E-01  0.37069040E-01 
    1    3    0.39255198E-03 -0.92733955E-02 
    2    3    0.59813068E-02  0.13325890E-02 
    3    3    0.14093732E-02  0.39783730E-03 
    4    3   -0.47672872E-02 -0.44278421E-02 
    1    4   -0.18921418E-02 -0.98946157E-03 
    2    4    0.14723317E-03  0.11573073E-02 
    3    4    0.17061863E-02 -0.39230192E-02 
    4    4    0.84775550E-02  0.14147599E-01 

    1   -1   -1
    1    1   -0.55285206E-03 -0.36163136E-02 
    2    1   -0.31426800E-01 -0.15652546E-01 
    3    1    0.15058557E-01 -0.19134470E-01 
    4    1    0.15131038E-01  0.17051526E-01 
    1    2    0.33890067E-01 -0.24792565E-02 
    2    2    0.44414292E-02 -0.79930904E-02 
    3    2   -0.13505640E-01 -0.17167464E-01 
    4    2   -0.34604249E-01 -0.54287923E-01 
    1    3    0.66009386E-02 -0.36651562E-02 
    2    3    0.30566214E-02  0.13341681E-01 
    3    3   -0.82172011E-02 -0.18124948E-02 
    4    3    0.10028066E-01 -0.60579988E-02 
    1    4   -0.23862618E-02  0.42158075E-03 
    2    4   -0.65557795E-04 -0.44160501E-03 
    3    4    0.16892373E-01  0.21406550E-02 
    4    4   -0.23515203E-02  0.13421899E-01 

    1   -1    0
    1    1   -0.44696052E-01 -0.20323545E-03 
    2    1    0.68556479E-02  0.17493036E-01 
    3    1    0.18034037E-01 -0.12032625E-01 
    4    1    0.66808371E-01 -0.21940723E-01 
    1    2    0.22163823E-02  0.14753554E+00 
    2    2    0.29963682E+00  0.33703098E-01 
    3    2    0.91409853E-01  0.87650610E-01 
    4    2   -0.75275854E+00 -0.92949039E+00 
    1    3    0.21825119E-01  0.14068248E-01 
    2    3   -0.16102870E-01 -0.24531007E-02 
    3    3   -0.35187157E-01 -0.17928196E-02 
    4    3    0.65697928E-01  0.18235679E-01 
    1    4   -0.68404851E-02 -0.14787123E-01 
    2    4   -0.85247393E-01  0.10734466E+00 
    3    4   -0.86441384E-02 -0.39846561E-02 
    4    4    0.38231306E+00 -0.31707043E-01 

    1   -1    1
    1    1    0.22128802E-02  0.78627321E-04 
    2    1   -0.44227369E-02 -0.55618011E-03 
    3    1    0.74326800E-02 -0.68956373E-03 
    4    1    0.22981947E-01  0.23739562E-01 
    1    2    0.63302578E-01 -0.36274718E-01 
    2    2   -0.52615183E-02 -0.62553452E-02 
    3    2    0.63457499E-02  0.11907876E-01 
    4    2   -0.34513126E-01 -0.44564216E-01 
    1    3    0.18244010E-01  0.19436223E-01 
    2    3    0.59950047E-02 -0.15643996E-01 
    3    3   -0.88043541E-02  0.36692383E-02 
    4    3   -0.23122282E-01  0.64261824E-02 
    1    4    0.49606175E-02  0.27802291E-01 
    2    4    0.48765786E-02 -0.44478578E-02 
    3    4   -0.86166023E-02 -0.62858726E-02 
    4    4    0.51728480E-02  0.25074796E-02 

    1   -1    2
    1    1   -0.10309151E-01  0.21663073E-02 
    2    1    0.47734583E-02  0.21815984E-02 
    3    1    0.44105824E-02  0.95752045E-02 
    4    1    0.38413776E-02  0.70205399E-02 
    1    2    0.14834244E-01 -0.18755183E-02 
    2    2    0.12832719E-02 -0.16711743E-01 
    3    2   -0.43345309E-02  0.17941459E-02 
    4    2    0.36136230E-01  0.37069040E-01 
    1    3    0.39255198E-03 -0.92733955E-02 
    2    3    0.59813068E-02  0.13325890E-02 
    3    3    0.14093732E-02  0.39783730E-03 
    4    3   -0.47672872E-02 -0.44278421E-02 
    1    4   -0.18921418E-02 -0.98946157E-03 
    2    4    0.14723317E-03  0.11573073E-02 
    3    4    0.17061863E-02 -0.39230192E-02 
    4    4    0.84775550E-02  0.14147599E-01 

    1    0   -2
    1    1    0.21356692E-01  0.39612163E-02 
    2    1    0.48250754E-01  0.14073258E-01 
    3    1   -0.49419525E-02 -0.36332383E-01 
    4    1    0.48829337E-01  0.24924772E+00 
    1    2   -0.18455890E-01  0.17399739E-02 
    2    2    0.27454087E-02 -0.20149499E-02 
    3    2   -0.11480003E-01  0.16137114E-02 
    4    2    0.66650532E-02  0.50657863E-02 
    1    3    0.19727286E-02 -0.11951952E-02 
    2    3    0.12592064E-01  0.10997036E-01 
    3    3   -0.67853930E-02 -0.14047500E-01 
    4    3   -0.37687568E-01  0.47573445E-02 
    1    4    0.22960952E-01  0.39429191E-02 
    2    4    0.27334536E-02  0.90766637E-02 
    3    4   -0.58379261E-02 -0.32965608E-02 
    4    4   -0.23010853E-01  0.12101234E-01 

    1    0   -1
    1    1    0.30475306E+00  0.25223409E-01 
    2    1   -0.48707894E-01 -0.91177212E-01 
    3    1   -0.64478045E-01  0.97454889E-01 
    4    1    0.78231487E+00 -0.93622407E+00 
    1    2   -0.87887226E-03 -0.34061462E-01 
    2    2   -0.36753369E-01  0.52970545E-02 
    3    2   -0.21426379E-01 -0.20427973E-01 
    4    2   -0.41616866E-01 -0.95954461E-01 
    1    3   -0.54506603E-05  0.25914338E-01 
    2    3    0.47596202E-02  0.27703621E-01 
    3    3   -0.33326809E-01 -0.12045001E-01 
    4    3    0.59315052E-01  0.89907844E-02 
    1    4    0.85168482E-01  0.10638018E+00 
    2    4    0.10112276E-01 -0.14847177E-03 
    3    4   -0.10934603E-01 -0.42199466E-02 
    4    4    0.36739379E+00 -0.18475462E-01 

    1    0    0
    1    1    0.42096332E-01  0.45788129E-01 
    2    1    0.47988370E-01  0.65590680E-01 
    3    1    0.65853527E-01 -0.81108415E-01 
    4    1    0.31855841E+00 -0.12298416E+00 
    1    2    0.53157924E-02 -0.82447370E-01 
    2    2    0.48855657E-01  0.25606535E-02 
    3    2   -0.56812465E-01 -0.72128195E-01 
    4    2   -0.87572437E-01 -0.35336336E+00 
    1    3   -0.42465944E-01 -0.74829594E-02 
    2    3   -0.35798019E-02 -0.30232627E-01 
    3    3    0.40099871E+00  0.21137397E-01 
    4    3    0.12220539E+01 -0.23395672E+00 
    1    4    0.14328692E-01 -0.17741834E-01 
    2    4    0.12862074E-01  0.44604638E-02 
    3    4    0.15347976E+00  0.31727800E-01 
    4    4    0.11011597E+00 -0.69486179E-01 

    1    0    1
    1    1   -0.34723685E-01  0.55830810E-02 
    2    1    0.12408349E-01 -0.19145953E-01 
    3    1   -0.16433356E-01  0.45803670E-02 
    4    1    0.12950593E+00  0.10989493E+00 
    1    2   -0.54105177E-02  0.80915413E-02 
    2    2    0.56204029E-03 -0.40450077E-02 
    3    2   -0.10686922E-01  0.12220797E-01 
    4    2    0.97402973E-02  0.22748622E-01 
    1    3   -0.29549961E-02  0.42540487E-01 
    2    3    0.22905596E-01 -0.94270879E-02 
    3    3   -0.55462600E-02 -0.14803105E-01 
    4    3    0.43322112E-01 -0.26449788E-01 
    1    4    0.97834091E-02 -0.61058408E-02 
    2    4    0.36519483E-02 -0.61120496E-02 
    3    4    0.27874259E-04  0.37606620E-03 
    4    4    0.34013760E-01  0.13265032E-01 

    1    1   -3
    1    1    0.51893360E-02 -0.29716277E-02 
    2    1   -0.12823370E-01 -0.33464265E-02 
    3    1   -0.32195889E-02 -0.30053643E-02 
    4    1    0.46439474E-02 -0.34360217E-02 
    1    2    0.55999222E-02  0.15764173E-01 
    2    2    0.11481721E-02  0.30363826E-02 
    3    2   -0.44183432E-02  0.64618672E-03 
    4    2    0.55428966E-02 -0.72297952E-02 
    1    3    0.26188195E-02  0.27179103E-02 
    2    3   -0.12233403E-01 -0.70187926E-04 
    3    3    0.13669921E-01 -0.71388369E-03 
    4    3   -0.99484409E-03 -0.41439708E-02 
    1    4    0.25799029E-02  0.92672368E-03 
    2    4   -0.14206415E-02  0.39022992E-02 
    3    4    0.22439957E-02  0.44452312E-03 
    4    4    0.21383433E-02  0.64912879E-03 

    1    1   -2
    1    1    0.51858179E-02 -0.34087218E-02 
    2    1   -0.22263664E-01 -0.24964533E-01 
    3    1   -0.42633596E-02 -0.28118364E-02 
    4    1   -0.27456164E-02 -0.15196239E-02 
    1    2   -0.51751404E-03 -0.14513702E-02 
    2    2   -0.42525410E-02  0.10655763E-02 
    3    2   -0.17236424E-02 -0.52462476E-03 
    4    2    0.15865833E-02  0.11403310E-01 
    1    3   -0.23181119E-02  0.35397614E-02 
    2    3   -0.36614212E-02 -0.75959953E-02 
    3    3    0.17548118E-02  0.67393306E-03 
    4    3    0.20456572E-02 -0.58910601E-02 
    1    4    0.14893712E-03 -0.79288108E-03 
    2    4    0.91605909E-02 -0.10282331E-01 
    3    4    0.11090351E-02  0.62628080E-03 
    4    4   -0.83822340E-02  0.16692125E-02 

    1    1   -1
    1    1   -0.13458912E-01  0.11174874E-01 
    2    1   -0.13995809E-01  0.67457374E-01 
    3    1   -0.19175343E-01  0.24488520E-01 
    4    1    0.18748194E-01 -0.32540886E-01 
    1    2    0.75781776E-02 -0.40357836E-02 
    2    2   -0.87478614E-04 -0.65911862E-02 
    3    2    0.33209608E-02 -0.15369675E-02 
    4    2    0.11031391E-01 -0.18359701E-01 
    1    3   -0.13402615E-01 -0.11461722E-01 
    2    3   -0.16717437E-01  0.22557448E-01 
    3    3    0.30869425E-02  0.32048634E-03 
    4    3   -0.22965914E-01  0.15905268E-02 
    1    4   -0.29034178E-02 -0.45134608E-02 
    2    4   -0.25749979E-01  0.14461488E-01 
    3    4   -0.43227934E-02 -0.14415927E-02 
    4    4    0.37793041E-02 -0.49041744E-02 

    1    1    0
    1    1    0.13443857E-01 -0.57712575E-03 
    2    1   -0.68466342E-02  0.14209608E-02 
    3    1   -0.42164877E-02 -0.54161688E-02 
    4    1   -0.17524787E-01  0.86677867E-02 
    1    2   -0.79723377E-02  0.72117537E-02 
    2    2   -0.79656891E-02  0.85599917E-02 
    3    2   -0.62431711E-03  0.49192056E-03 
    4    2    0.10921046E+00 -0.10678120E+00 
    1    3   -0.13188653E-01 -0.47517522E-03 
    2    3   -0.33583243E-01  0.90590357E-02 
    3    3   -0.49878741E-02  0.10919883E-03 
    4    3    0.54262092E-01 -0.23116518E-01 
    1    4   -0.59928857E-02 -0.61188527E-02 
    2    4    0.10426286E-02  0.52850620E-02 
    3    4   -0.87456966E-02 -0.10193123E-02 
    4    4   -0.61844389E-02 -0.80920648E-02 

    1    1    1
    1    1    0.51893360E-02 -0.29716277E-02 
    2    1   -0.12823370E-01 -0.33464265E-02 
    3    1   -0.32195889E-02 -0.30053643E-02 
    4    1    0.46439474E-02 -0.34360217E-02 
    1    2    0.55999222E-02  0.15764173E-01 
    2    2    0.11481721E-02  0.30363826E-02 
    3    2   -0.44183432E-02  0.64618672E-03 
    4    2    0.55428966E-02 -0.72297952E-02 
    1    3    0.26188195E-02  0.27179103E-02 
    2    3   -0.12233403E-01 -0.70187926E-04 
    3    3    0.13669921E-01 -0.71388369E-03 
    4    3   -0.99484409E-03 -0.41439708E-02 
    1    4    0.25799029E-02  0.92672368E-03 
    2    4   -0.14206415E-02  0.39022992E-02 
    3    4    0.22439957E-02  0.44452312E-03 
    4    4    0.21383433E-02  0.64912879E-03 

    1    2   -2
    1    1   -0.35866089E-02 -0.35915212E-03 
    2    1    0.40641751E-02  0.53669334E-02 
    3    1    0.36489852E-03  0.44876981E-03 
    4    1    0.10247423E-02 -0.35558325E-02 
    1    2   -0.26137428E-02  0.24474494E-04 
    2    2    0.15835958E-02 -0.25588024E-02 
    3    2    0.55134932E-03 -0.39265274E-02 
    4    2   -0.16377720E-01 -0.24354044E-03 
    1    3    0.19168999E-02  0.28531463E-03 
    2    3   -0.57380794E-04 -0.46378780E-03 
    3    3    0.26369872E-02  0.24837712E-03 
    4    3    0.26715120E-02 -0.13566230E-02 
    1    4    0.86355702E-03  0.23806455E-02 
    2    4   -0.31826395E-02  0.20143800E-02 
    3    4    0.79714165E-03  0.33354813E-03 
    4    4    0.22707543E-03  0.26695774E-02 

    1    2   -1
    1    1    0.13898096E-02 -0.13804548E-02 
    2    1   -0.10532805E-01 -0.63191017E-03 
    3    1   -0.13457651E-02 -0.22392995E-02 
    4    1   -0.21359090E-01  0.16725890E-01 
    1    2   -0.20579501E-02  0.85818655E-02 
    2    2   -0.60993346E-02  0.31517727E-02 
    3    2    0.77173556E-02 -0.94627496E-02 
    4    2    0.16129455E-01 -0.64080226E-02 
    1    3   -0.10948503E-02 -0.15824783E-02 
    2    3    0.61727127E-02  0.49008131E-02 
    3    3   -0.11481036E-02 -0.26200487E-03 
    4    3   -0.31606203E-02  0.21162680E-02 
    1    4   -0.88660840E-03 -0.24736736E-03 
    2    4    0.93116951E-03 -0.42855983E-02 
    3    4   -0.44618309E-03  0.14147677E-02 
    4    4    0.67186781E-02 -0.15093131E-02 

    2   -2   -2
    1    1    0.34355603E-02 -0.64664585E-17 
    2    1    0.26308325E-03 -0.23060545E-02 
    3    1   -0.12989944E-02 -0.21818158E-03 
    4    1    0.82559131E-03 -0.18459109E-02 
    1    2    0.26308325E-03  0.23060545E-02 
    2    2    0.24669543E-02 -0.34179643E-17 
    3    2   -0.15018552E-02  0.43950707E-03 
    4    2    0.21451258E-02 -0.52623931E-03 
    1    3   -0.12989944E-02  0.21818158E-03 
    2    3   -0.15018552E-02 -0.43950707E-03 
    3    3    0.33571969E-02 -0.18321379E-17 
    4    3   -0.84297514E-03 -0.68534790E-04 
    1    4    0.82559131E-03  0.18459109E-02 
    2    4    0.21451258E-02  0.52623931E-03 
    3    4   -0.84297514E-03  0.68534790E-04 
    4    4    0.37713149E-02  0.15052444E-16 

    2   -2   -1
    1    1    0.24653656E-03  0.92356743E-03 
    2    1    0.30289136E-02  0.76231802E-03 
    3    1   -0.23937201E-02  0.19930087E-02 
    4    1    0.24370868E-02 -0.18369010E-02 
    1    2    0.69538589E-03 -0.23355498E-02 
    2    2   -0.13522167E-02 -0.18885935E-02 
    3    2   -0.95564647E-03 -0.10958364E-02 
    4    2   -0.23092844E-02  0.40166071E-02 
    1    3   -0.25612011E-02 -0.15356400E-03 
    2    3    0.84084416E-03 -0.11001086E-04 
    3    3    0.34215526E-02  0.10743440E-02 
    4    3    0.22677495E-02 -0.31971104E-04 
    1    4    0.24868486E-03 -0.93474682E-03 
    2    4    0.50324203E-02 -0.72672396E-03 
    3    4   -0.16464448E-02 -0.54531773E-03 
    4    4   -0.14548229E-02 -0.10931793E-03 

    2   -2    0
    1    1   -0.47772406E-02  0.10626326E-16 
    2    1    0.11460302E-02  0.17311197E-02 
    3    1   -0.21391432E-02  0.64843009E-03 
    4    1   -0.29170640E-03  0.44394750E-02 
    1    2    0.11460302E-02 -0.17311197E-02 
    2    2    0.81452637E-01  0.58695722E-17 
    3    2    0.19960609E-02 -0.45564923E-03 
    4    2   -0.95927871E-01 -0.11753715E+00 
    1    3   -0.21391432E-02 -0.64843009E-03 
    2    3    0.19960609E-02  0.45564923E-03 
    3    3   -0.54982302E-02  0.11818690E-16 
    4    3    0.48436829E-03 -0.76057191E-03 
    1    4   -0.29170640E-03 -0.44394750E-02 
    2    4   -0.95927871E-01  0.11753715E+00 
    3    4    0.48436829E-03  0.76057191E-03 
    4    4    0.12369709E+00  0.43271757E-17 

    2   -2    1
    1    1    0.24653656E-03 -0.92356743E-03 
    2    1    0.69538589E-03  0.23355498E-02 
    3    1   -0.25612011E-02  0.15356400E-03 
    4    1    0.24868486E-03  0.93474682E-03 
    1    2    0.30289136E-02 -0.76231802E-03 
    2    2   -0.13522167E-02  0.18885935E-02 
    3    2    0.84084416E-03  0.11001086E-04 
    4    2    0.50324203E-02  0.72672396E-03 
    1    3   -0.23937201E-02 -0.19930087E-02 
    2    3   -0.95564647E-03  0.10958364E-02 
    3    3    0.34215526E-02 -0.10743440E-02 
    4    3   -0.16464448E-02  0.54531773E-03 
    1    4    0.24370868E-02  0.18369010E-02 
    2    4   -0.23092844E-02 -0.40166071E-02 
    3    4    0.22677495E-02  0.31971104E-04 
    4    4   -0.14548229E-02  0.10931793E-03 

    2   -2    2
    1    1    0.34355603E-02 -0.44533861E-17 
    2    1    0.26308325E-03 -0.23060545E-02 
    3    1   -0.12989944E-02 -0.21818158E-03 
    4    1    0.82559131E-03 -0.18459109E-02 
    1    2    0.26308325E-03  0.23060545E-02 
    2    2    0.24669543E-02 -0.12618066E-16 
    3    2   -0.15018552E-02  0.43950707E-03 
    4    2    0.21451258E-02 -0.52623931E-03 
    1    3   -0.12989944E-02  0.21818158E-03 
    2    3   -0.15018552E-02 -0.43950707E-03 
    3    3    0.33571969E-02 -0.50028504E-18 
    4    3   -0.84297514E-03 -0.68534790E-04 
    1    4    0.82559131E-03  0.18459109E-02 
    2    4    0.21451258E-02  0.52623931E-03 
    3    4   -0.84297514E-03  0.68534790E-04 
    4    4    0.37713149E-02  0.16190326E-17 

    2   -1   -2
    1    1   -0.57552686E-02 -0.63717201E-03 
    2    1    0.18917074E-02 -0.26243228E-03 
    3    1    0.24695177E-02 -0.73716964E-03 
    4    1   -0.42016259E-02 -0.20655485E-02 
    1    2   -0.31243646E-03 -0.77509794E-02 
    2    2    0.93755978E-03  0.29645475E-03 
    3    2    0.14695648E-02  0.26070565E-02 
    4    2   -0.13089650E-01 -0.10713515E-01 
    1    3   -0.59604862E-03 -0.28317468E-03 
    2    3   -0.19208452E-03 -0.44019072E-03 
    3    3    0.23114166E-02 -0.53288072E-03 
    4    3   -0.36262566E-03  0.14743660E-02 
    1    4   -0.24962913E-02  0.15558799E-04 
    2    4    0.53015600E-03  0.12372426E-02 
    3    4   -0.34514822E-03  0.13806502E-02 
    4    4    0.33673418E-02  0.87359798E-03 

    2   -1   -1
    1    1   -0.47981374E-02 -0.63840070E-03 
    2    1   -0.23900919E-02 -0.26255678E-02 
    3    1    0.16103322E-02 -0.42176364E-02 
    4    1   -0.10114711E-01  0.29672186E-01 
    1    2   -0.84931819E-03  0.10844794E-01 
    2    2   -0.69564976E-02 -0.20540476E-03 
    3    2    0.59589574E-03  0.75923484E-03 
    4    2    0.40500763E-01  0.24181620E-01 
    1    3    0.39025596E-02  0.37143145E-02 
    2    3   -0.11268153E-02  0.16704113E-02 
    3    3    0.37233037E-02 -0.24171936E-03 
    4    3    0.22393705E-01 -0.61509597E-02 
    1    4   -0.82569851E-03 -0.78670968E-03 
    2    4   -0.29369312E-02 -0.11123852E-02 
    3    4    0.27137918E-02  0.69433304E-03 
    4    4    0.23371861E-02  0.10855248E-02 

    2   -1    0
    1    1    0.40587417E-02 -0.29225963E-04 
    2    1    0.23895592E-02  0.63291743E-02 
    3    1   -0.33227861E-02  0.21078864E-02 
    4    1    0.19161483E-01 -0.32050952E-01 
    1    2   -0.18483103E-02  0.71288911E-03 
    2    2    0.97938354E-02  0.25738876E-02 
    3    2    0.34150314E-02 -0.43611683E-02 
    4    2    0.13312566E-01 -0.13358867E-01 
    1    3   -0.85481155E-03 -0.28646767E-02 
    2    3    0.14979620E-02  0.17295430E-02 
    3    3   -0.55477387E-02  0.81401492E-04 
    4    3   -0.12917221E-01  0.19497511E-02 
    1    4    0.15620072E-02  0.14912541E-02 
    2    4    0.20445694E-01 -0.67783238E-02 
    3    4    0.15353380E-02  0.37624975E-03 
    4    4   -0.13998984E-01 -0.26260631E-02 

    2   -1    1
    1    1    0.34574921E-02 -0.20782572E-03 
    2    1   -0.52136005E-03 -0.27802959E-02 
    3    1   -0.77459579E-03  0.10375622E-02 
    4    1   -0.15466123E-02 -0.10970491E-02 
    1    2    0.28378275E-02 -0.27516171E-02 
    2    2    0.41713879E-02 -0.98835266E-03 
    3    2   -0.52220289E-03  0.92580295E-03 
    4    2    0.36368515E-02  0.12937888E-01 
    1    3   -0.13330834E-02 -0.68161820E-04 
    2    3    0.19385895E-02 -0.17454491E-02 
    3    3   -0.72589503E-03  0.67923423E-03 
    4    3   -0.53244627E-02  0.14981374E-02 
    1    4   -0.14538939E-02 -0.23511028E-03 
    2    4   -0.35581150E-02  0.60278149E-03 
    3    4   -0.55727830E-02 -0.95767421E-03 
    4    4   -0.60419354E-02  0.51694415E-03 

    2    0   -2
    1    1    0.85829022E-01  0.39160975E-17 
    2    1    0.16977458E-02  0.62208507E-02 
    3    1    0.21372188E-02 -0.19908721E-02 
    4    1    0.86598684E-01 -0.10737590E+00 
    1    2    0.16977458E-02 -0.62208507E-02 
    2    2    0.70926175E-03 -0.19092318E-16 
    3    2    0.15532373E-02  0.37879971E-02 
    4    2    0.28807745E-02  0.23645140E-03 
    1    3    0.21372188E-02  0.19908721E-02 
    2    3    0.15532373E-02 -0.37879971E-02 
    3    3   -0.43428845E-02  0.12961935E-16 
    4    3    0.12808945E-02  0.71067687E-04 
    1    4    0.86598684E-01  0.10737590E+00 
    2    4    0.28807745E-02 -0.23645140E-03 
    3    4    0.12808945E-02 -0.71067687E-04 
    4    4    0.11267885E+00  0.37962511E-17 

    2    0   -1
    1    1    0.12370188E-01  0.17183194E-02 
    2    1   -0.12272410E-02 -0.13742571E-02 
    3    1    0.36419555E-02  0.33587415E-02 
    4    1    0.20490120E-01  0.82085679E-02 
    1    2    0.61434338E-02 -0.11376499E-01 
    2    2    0.23393429E-02  0.19680657E-02 
    3    2    0.10232927E-03 -0.79432781E-03 
    4    2   -0.24363700E-01 -0.35473852E-01 
    1    3   -0.30371089E-02  0.11930410E-02 
    2    3   -0.40707198E-04 -0.10771978E-02 
    3    3   -0.10556060E-01  0.98244378E-03 
    4    3   -0.14068155E-01  0.11878938E-01 
    1    4    0.28997790E-02 -0.22252957E-01 
    2    4    0.56976242E-03  0.29429896E-02 
    3    4   -0.47002414E-02  0.77227227E-03 
    4    4   -0.98476162E-02 -0.46688289E-02 

    2    0    0
    1    1   -0.58951919E-02 -0.80054898E-16 
    2    1    0.15564994E-02 -0.17527225E-02 
    3    1    0.16218193E-01 -0.14824690E-01 
    4    1    0.19369423E-01 -0.54683393E-03 
    1    2    0.15564994E-02  0.17527225E-02 
    2    2    0.99083801E-03 -0.82851769E-16 
    3    2   -0.12083639E-01 -0.19577102E-01 
    4    2    0.14422434E-02 -0.17216361E-01 
    1    3    0.16218193E-01  0.14824690E-01 
    2    3   -0.12083639E-01  0.19577102E-01 
    3    3    0.11865264E+00 -0.11690019E-15 
    4    3    0.14025119E+00 -0.28464852E-01 
    1    4    0.19369423E-01  0.54683393E-03 
    2    4    0.14422434E-02  0.17216361E-01 
    3    4    0.14025119E+00  0.28464852E-01 
    4    4    0.81125968E-01 -0.66399487E-16 

    2    1   -2
    1    1   -0.57552686E-02  0.63717201E-03 
    2    1   -0.31243646E-03  0.77509794E-02 
    3    1   -0.59604862E-03  0.28317468E-03 
    4    1   -0.24962913E-02 -0.15558799E-04 
    1    2    0.18917074E-02  0.26243228E-03 
    2    2    0.93755978E-03 -0.29645475E-03 
    3    2   -0.19208452E-03  0.44019072E-03 
    4    2    0.53015600E-03 -0.12372426E-02 
    1    3    0.24695177E-02  0.73716964E-03 
    2    3    0.14695648E-02 -0.26070565E-02 
    3    3    0.23114166E-02  0.53288072E-03 
    4    3   -0.34514822E-03 -0.13806502E-02 
    1    4   -0.42016259E-02  0.20655485E-02 
    2    4   -0.13089650E-01  0.10713515E-01 
    3    4   -0.36262566E-03 -0.14743660E-02 
    4    4    0.33673418E-02 -0.87359798E-03 

    2    1   -1
    1    1    0.34574921E-02  0.20782572E-03 
    2    1    0.28378275E-02  0.27516171E-02 
    3    1   -0.13330834E-02  0.68161820E-04 
    4    1   -0.14538939E-02  0.23511028E-03 
    1    2   -0.52136005E-03  0.27802959E-02 
    2    2    0.41713879E-02  0.98835266E-03 
    3    2    0.19385895E-02  0.17454491E-02 
    4    2   -0.35581150E-02 -0.60278149E-03 
    1    3   -0.77459579E-03 -0.10375622E-02 
    2    3   -0.52220289E-03 -0.92580295E-03 
    3    3   -0.72589503E-03 -0.67923423E-03 
    4    3   -0.55727830E-02  0.95767421E-03 
    1    4   -0.15466123E-02  0.10970491E-02 
    2    4    0.36368515E-02 -0.12937888E-01 
    3    4   -0.53244627E-02 -0.14981374E-02 
    4    4   -0.60419354E-02 -0.51694415E-03 

    2    2   -2
    1    1    0.34355603E-02 -0.14461706E-16 
    2    1    0.26308325E-03 -0.23060545E-02 
    3    1   -0.12989944E-02 -0.21818158E-03 
    4    1    0.82559131E-03 -0.18459109E-02 
    1    2    0.26308325E-03  0.23060545E-02 
    2    2    0.24669543E-02 -0.27555049E-17 
    3    2   -0.15018552E-02  0.43950707E-03 
    4    2    0.21451258E-02 -0.52623931E-03 
    1    3   -0.12989944E-02  0.21818158E-03 
    2    3   -0.15018552E-02 -0.43950707E-03 
    3    3    0.33571969E-02 -0.76352570E-18 
    4    3   -0.84297514E-03 -0.68534790E-04 
    1    4    0.82559131E-03  0.18459109E-02 
    2    4    0.21451258E-02  0.52623931E-03 
    3    4   -0.84297514E-03  0.68534790E-04 
    4    4    0.37713149E-02  0.20280322E-17 

    3   -1   -1
    1    1    0.51893360E-02  0.29716277E-02 
    2    1    0.55999222E-02 -0.15764173E-01 
    3    1    0.26188195E-02 -0.27179103E-02 
    4    1    0.25799029E-02 -0.92672368E-03 
    1    2   -0.12823370E-01  0.33464265E-02 
    2    2    0.11481721E-02 -0.30363826E-02 
    3    2   -0.12233403E-01  0.70187926E-04 
    4    2   -0.14206415E-02 -0.39022992E-02 
    1    3   -0.32195889E-02  0.30053643E-02 
    2    3   -0.44183432E-02 -0.64618672E-03 
    3    3    0.13669921E-01  0.71388369E-03 
    4    3    0.22439957E-02 -0.44452312E-03 
    1    4    0.46439474E-02  0.34360217E-02 
    2    4    0.55428966E-02  0.72297952E-02 
    3    4   -0.99484409E-03  0.41439708E-02 
    4    4    0.21383433E-02 -0.64912879E-03 

   -3    1    1
    1    1    0.24832468E-03  0.21054981E-03 -0.13753097E-03  0.98260052E-04  0.58069225E-03 -0.33776937E-03
    2    1    0.77616621E-03  0.16798561E-02  0.52175643E-03 -0.40806305E-03  0.20299843E-03 -0.51336310E-03
    3    1   -0.15031232E-02  0.24281016E-03  0.15237905E-02 -0.16542805E-03 -0.17450540E-02  0.76278136E-03
    4    1   -0.88837599E-03  0.12047877E-02  0.32977267E-02 -0.23351692E-02  0.26138228E-02  0.15010898E-03
    1    2    0.12466878E-02 -0.24597414E-02  0.84780944E-03 -0.15712669E-02  0.22332545E-02  0.52413262E-03
    2    2   -0.17877515E-03  0.52372732E-04 -0.19460656E-03 -0.55366438E-03 -0.20636548E-03 -0.36570514E-03
    3    2   -0.97810990E-04 -0.11659733E-02  0.24137258E-03 -0.48923574E-03  0.90863619E-04 -0.42881453E-03
    4    2   -0.15535310E-02  0.61014191E-03 -0.18522871E-02 -0.75405755E-03 -0.23991290E-02  0.89530683E-03
    1    3    0.11487089E-02  0.48915695E-03 -0.63747397E-03 -0.39374664E-04 -0.17817685E-02  0.35662176E-03
    2    3    0.66595497E-03  0.14844955E-02 -0.66993265E-04 -0.23321643E-03 -0.52688361E-03 -0.39844673E-03
    3    3    0.15423396E-03 -0.91696223E-04 -0.14518191E-03  0.14821319E-03 -0.14388598E-03  0.13591641E-04
    4    3    0.15374207E-03 -0.17392491E-02  0.12253253E-02  0.98034891E-03 -0.81630882E-03  0.89691539E-03
    1    4    0.10691543E-02  0.11522952E-02  0.87587681E-03  0.97138044E-03  0.86436057E-03 -0.18814251E-03
    2    4    0.11892029E-03  0.60749884E-03 -0.10386766E-02  0.50655135E-03  0.53721958E-03 -0.16841442E-02
    3    4    0.21618266E-03  0.43858498E-03  0.88069275E-03  0.28422955E-03 -0.55900044E-03 -0.18948247E-03
    4    4    0.46966758E-04  0.30524798E-03  0.18742576E-03 -0.30317583E-03 -0.11811554E-03  0.41930501E-03

   -2   -2    2
    1    1    0.10007999E-14  0.45955225E-19 -0.99364419E-15 -0.52716836E-19  0.10016673E-14 -0.76975569E-19
    2    1   -0.39217309E-03  0.22838336E-04 -0.39834643E-03  0.16965866E-03  0.51608102E-03  0.28846878E-03
    3    1   -0.75331338E-05  0.23839744E-04 -0.16050534E-05 -0.11617865E-04  0.24423270E-04 -0.34891065E-03
    4    1   -0.30254942E-03  0.24878138E-03  0.45628511E-03  0.52795427E-03 -0.14703025E-03  0.36286041E-03
    1    2    0.39217309E-03  0.22838336E-04  0.39834643E-03  0.16965866E-03 -0.51608102E-03  0.28846878E-03
    2    2   -0.24149926E-15 -0.27417674E-19  0.23282564E-15 -0.12901569E-19 -0.25450968E-15  0.17706948E-19
    3    2   -0.16174053E-04 -0.85320849E-04  0.73305690E-04  0.38129593E-04  0.16645947E-04  0.14619964E-03
    4    2   -0.60039714E-03 -0.30949001E-03  0.75694096E-04 -0.49395605E-03 -0.38551759E-03  0.40253534E-04
    1    3    0.75331338E-05  0.23839744E-04  0.16050534E-05 -0.11617865E-04 -0.24423270E-04 -0.34891065E-03
    2    3    0.16174053E-04 -0.85320849E-04 -0.73305690E-04  0.38129593E-04 -0.16645947E-04  0.14619964E-03
    3    3   -0.37206430E-15 -0.21534753E-20  0.38496631E-15  0.84168995E-20 -0.38897786E-15  0.20151605E-19
    4    3    0.21275789E-03  0.10471548E-03 -0.73250064E-04 -0.11254431E-03 -0.32262271E-03  0.11277594E-03
    1    4    0.30254942E-03  0.24878138E-03 -0.45628511E-03  0.52795427E-03  0.14703025E-03  0.36286041E-03
    2    4    0.60039714E-03 -0.30949001E-03 -0.75694096E-04 -0.49395605E-03  0.38551759E-03  0.40253534E-04
    3    4   -0.21275789E-03  0.10471548E-03  0.73250064E-04 -0.11254431E-03  0.32262271E-03  0.11277594E-03
    4    4    0.20899352E-15  0.38454825E-19 -0.20595776E-15  0.12702581E-19  0.23805014E-15 -0.19921215E-19

   -2   -1    1
    1    1   -0.10855206E-03 -0.33130767E-04 -0.14598159E-03  0.63613600E-04 -0.10855206E-03 -0.33130767E-04
    2    1    0.55292467E-03 -0.46046026E-04  0.11584825E-02 -0.77736336E-04 -0.88449620E-03  0.64907587E-03
    3    1   -0.14885450E-02  0.70276546E-03 -0.13375138E-02  0.70823685E-03  0.26208980E-02 -0.15425294E-02
    4    1   -0.92657668E-03  0.69698673E-03  0.80857058E-03 -0.13631454E-02  0.21616085E-02 -0.22615204E-02
    1    2    0.27759974E-03 -0.35286370E-03 -0.49701761E-04 -0.58263659E-03 -0.92264456E-03  0.55799320E-03
    2    2   -0.16904032E-03 -0.20011484E-03 -0.23055547E-03 -0.56812805E-04 -0.16904032E-03 -0.20011484E-03
    3    2   -0.86840803E-03 -0.19438789E-02 -0.15412773E-03 -0.11136344E-02  0.15954310E-02  0.29014417E-02
    4    2   -0.31815775E-02 -0.27742090E-02  0.57248413E-03  0.18849320E-03  0.13128128E-02  0.16628409E-02
    1    3   -0.28478191E-02 -0.26218111E-02 -0.21504892E-02 -0.17327088E-02  0.17942689E-02  0.88436915E-03
    2    3   -0.96529596E-03  0.21102415E-02 -0.37678345E-03  0.14377305E-02  0.55760990E-03 -0.13962593E-02
    3    3    0.25011135E-05  0.95183531E-05  0.34503029E-04 -0.96034028E-05  0.25011135E-05  0.95183531E-05
    4    3    0.21168833E-03  0.93221644E-03 -0.16609593E-02  0.46859544E-03 -0.16058970E-02  0.71412097E-03
    1    4   -0.25166180E-02 -0.12947823E-02  0.40643699E-03  0.12683372E-02  0.17458753E-02  0.22966140E-02
    2    4   -0.18356945E-02  0.14426917E-02  0.86293575E-03 -0.14628570E-03  0.14350138E-02 -0.23182185E-02
    3    4   -0.10788443E-02  0.47882448E-04 -0.18930282E-02 -0.73739619E-03 -0.17048912E-03 -0.53734342E-03
    4    4    0.78552311E-04  0.10096130E-03  0.22284245E-03 -0.41092360E-04  0.78552311E-04  0.10096130E-03

   -2   -1    2
    1    1    0.19175896E-04 -0.32244754E-04 -0.43386176E-04  0.20061765E-03 -0.43386176E-04  0.20061765E-03
    2    1    0.72657057E-03  0.13421410E-02  0.66809600E-03  0.15962183E-02 -0.46449207E-03 -0.17002798E-02
    3    1   -0.14002676E-02  0.69816177E-03 -0.23217469E-02  0.11520796E-02  0.23312335E-02 -0.98446399E-03
    4    1   -0.85434158E-03  0.14069175E-02  0.21191518E-03  0.85048806E-03  0.49418916E-04  0.12826401E-02
    1    2    0.42142273E-03 -0.40879715E-03  0.32285073E-03 -0.59578161E-03 -0.18874610E-03  0.12650071E-02
    2    2   -0.46950226E-04 -0.78287889E-04  0.23846940E-04 -0.48693424E-04  0.23846940E-04 -0.48693424E-04
    3    2   -0.53082205E-03 -0.60568951E-03  0.35530313E-03  0.59919932E-03 -0.30198328E-03 -0.55593619E-03
    4    2    0.21600966E-03  0.54164096E-03 -0.45429892E-03  0.72630065E-04 -0.81220058E-03 -0.10178626E-02
    1    3   -0.10017644E-02 -0.17164458E-03 -0.15859364E-02 -0.54366971E-04  0.24892362E-02  0.15974632E-02
    2    3   -0.31060034E-03  0.57886489E-04 -0.14737008E-03 -0.47595143E-04  0.27475349E-03  0.11899527E-03
    3    3   -0.10929407E-04 -0.19539932E-04  0.65024508E-04 -0.78341966E-06  0.65024508E-04 -0.78341966E-06
    4    3    0.10531469E-02 -0.38145090E-03 -0.19197849E-02  0.18257492E-03  0.10559003E-02 -0.32093570E-03
    1    4   -0.55380896E-03 -0.60726885E-04  0.60685894E-03  0.45643725E-03  0.11480729E-02  0.39567180E-03
    2    4    0.52686939E-03 -0.83610777E-03 -0.11005746E-02  0.35385244E-03  0.12678270E-02 -0.60489487E-03
    3    4    0.12806109E-02  0.54417979E-03 -0.28607635E-02 -0.52696425E-03  0.22924054E-02  0.36400275E-03
    4    4    0.10501044E-04 -0.13118141E-03 -0.12847975E-03 -0.53523032E-04 -0.12847975E-03 -0.53523032E-04

   -2    0    0
    1    1    0.82663612E-03 -0.40307215E-16 -0.10275607E-03  0.39988609E-16  0.82663612E-03 -0.41593074E-16
    2    1   -0.49341470E-03  0.45121014E-03 -0.26306763E-03 -0.82964853E-03 -0.58264364E-03 -0.41849491E-03
    3    1    0.22313174E-02 -0.26172778E-02  0.10102399E-02 -0.52549502E-03 -0.37729624E-02  0.30736335E-02
    4    1   -0.27185703E-02  0.11972344E-02 -0.18941489E-02  0.34136693E-03  0.14805892E-02 -0.69193654E-04
    1    2   -0.58264364E-03  0.41849491E-03 -0.91071176E-03  0.14803234E-03 -0.49341470E-03 -0.45121014E-03
    2    2   -0.62602820E-03  0.40034744E-16 -0.28980057E-03  0.42546339E-16 -0.62602820E-03  0.41399460E-16
    3    2   -0.91533062E-03 -0.55061655E-03 -0.47223256E-03  0.27888492E-03  0.19003454E-02  0.29975689E-02
    4    2   -0.85403164E-03  0.21530864E-05  0.17191420E-02  0.36138179E-02  0.44212220E-02  0.17801491E-02
    1    3   -0.37729624E-02 -0.30736335E-02  0.12196873E-02  0.65349314E-03  0.22313174E-02  0.26172778E-02
    2    3    0.19003454E-02 -0.29975689E-02 -0.20638736E-03  0.27200095E-03 -0.91533062E-03  0.55061655E-03
    3    3   -0.32687953E-03  0.40635192E-16  0.16370602E-03 -0.41319467E-16 -0.32687953E-03 -0.40546679E-16
    4    3   -0.23748515E-01  0.52421675E-02  0.13995026E-02  0.14932414E-02  0.23366914E-01 -0.52713735E-02
    1    4    0.14805892E-02  0.69193654E-04  0.20448723E-03 -0.22742956E-02 -0.27185703E-02 -0.11972344E-02
    2    4    0.44212220E-02 -0.17801491E-02  0.26541797E-02 -0.16527587E-02 -0.85403164E-03 -0.21530864E-05
    3    4    0.23366914E-01  0.52713735E-02 -0.28811005E-02  0.11055286E-02 -0.23748515E-01 -0.52421675E-02
    4    4    0.77666070E-03 -0.42202055E-16 -0.11667229E-02 -0.40399086E-16  0.77666070E-03  0.42211802E-16

   -2    0    1
    1    1   -0.27990114E-03 -0.96923160E-04  0.77895160E-04 -0.12644277E-03 -0.24167408E-03 -0.29616881E-03
    2    1    0.97243055E-03  0.25605090E-02  0.10130277E-02  0.41266898E-02 -0.12236865E-02 -0.44952394E-02
    3    1    0.84658236E-03 -0.11329069E-02  0.36202465E-02 -0.36352312E-02 -0.39431404E-02  0.35430020E-02
[...]
    4    3    0.21275789E-03  0.10471548E-03 -0.73250064E-04 -0.11254431E-03 -0.32262271E-03  0.11277594E-03
    1    4    0.30254942E-03  0.24878138E-03 -0.45628511E-03  0.52795427E-03  0.14703025E-03  0.36286041E-03
    2    4    0.60039714E-03 -0.30949001E-03 -0.75694096E-04 -0.49395605E-03  0.38551759E-03  0.40253534E-04
    3    4   -0.21275789E-03  0.10471548E-03  0.73250064E-04 -0.11254431E-03  0.32262271E-03  0.11277594E-03
    4    4    0.20899352E-15 -0.44003594E-19 -0.20595776E-15  0.94028920E-20  0.23805014E-15  0.62537204E-19

    2   -1   -2
    1    1    0.19175896E-04 -0.32244754E-04 -0.43386176E-04  0.20061765E-03 -0.43386176E-04  0.20061765E-03
    2    1    0.72657057E-03  0.13421410E-02  0.66809600E-03  0.15962183E-02 -0.46449207E-03 -0.17002798E-02
    3    1   -0.14002676E-02  0.69816177E-03 -0.23217469E-02  0.11520796E-02  0.23312335E-02 -0.98446399E-03
    4    1   -0.85434158E-03  0.14069175E-02  0.21191518E-03  0.85048806E-03  0.49418916E-04  0.12826401E-02
    1    2    0.42142273E-03 -0.40879715E-03  0.32285073E-03 -0.59578161E-03 -0.18874610E-03  0.12650071E-02
    2    2   -0.46950226E-04 -0.78287889E-04  0.23846940E-04 -0.48693424E-04  0.23846940E-04 -0.48693424E-04
    3    2   -0.53082205E-03 -0.60568951E-03  0.35530313E-03  0.59919932E-03 -0.30198328E-03 -0.55593619E-03
    4    2    0.21600966E-03  0.54164096E-03 -0.45429892E-03  0.72630065E-04 -0.81220058E-03 -0.10178626E-02
    1    3   -0.10017644E-02 -0.17164458E-03 -0.15859364E-02 -0.54366971E-04  0.24892362E-02  0.15974632E-02
    2    3   -0.31060034E-03  0.57886489E-04 -0.14737008E-03 -0.47595143E-04  0.27475349E-03  0.11899527E-03
    3    3   -0.10929407E-04 -0.19539932E-04  0.65024508E-04 -0.78341966E-06  0.65024508E-04 -0.78341966E-06
    4    3    0.10531469E-02 -0.38145090E-03 -0.19197849E-02  0.18257492E-03  0.10559003E-02 -0.32093570E-03
    1    4   -0.55380896E-03 -0.60726885E-04  0.60685894E-03  0.45643725E-03  0.11480729E-02  0.39567180E-03
    2    4    0.52686939E-03 -0.83610777E-03 -0.11005746E-02  0.35385244E-03  0.12678270E-02 -0.60489487E-03
    3    4    0.12806109E-02  0.54417979E-03 -0.28607635E-02 -0.52696425E-03  0.22924054E-02  0.36400275E-03
    4    4    0.10501044E-04 -0.13118141E-03 -0.12847975E-03 -0.53523032E-04 -0.12847975E-03 -0.53523032E-04

    2   -1   -1
    1    1    0.38293499E-03 -0.68113255E-04  0.78117067E-04 -0.38665839E-04  0.23766374E-03  0.21224262E-04
    2    1   -0.20763271E-04 -0.22964842E-02  0.23117506E-03 -0.26146538E-02  0.41680369E-03  0.13678984E-02
    3    1   -0.15970217E-02  0.36996915E-03 -0.99302581E-03 -0.21856979E-03  0.91309629E-03 -0.55560237E-03
    4    1   -0.22372341E-02  0.26584332E-03 -0.12380954E-02 -0.21352399E-02  0.87286200E-03 -0.17565975E-02
    1    2   -0.70408593E-03  0.20387025E-02 -0.10705750E-02  0.25004615E-02  0.13858894E-02 -0.23483694E-02
    2    2   -0.10012152E-03  0.23708638E-04 -0.89644050E-04  0.73753836E-04 -0.10170292E-03 -0.44965327E-04
    3    2    0.24901689E-03  0.12838900E-02 -0.37040966E-03  0.94119788E-03  0.22216282E-03 -0.96122355E-03
    4    2    0.38232752E-03  0.10744948E-02 -0.21306638E-02 -0.26928152E-03  0.98892346E-03 -0.85210932E-03
    1    3   -0.65306575E-03  0.44408360E-03 -0.23140163E-02 -0.15144352E-02  0.15393920E-02  0.58919378E-03
    2    3   -0.55048617E-04 -0.16761200E-02  0.12711216E-02 -0.34102435E-02  0.39183497E-03  0.75255606E-03
    3    3   -0.10270168E-03 -0.52937711E-04 -0.13128758E-05  0.37049541E-04  0.23841324E-04  0.10171891E-03
    4    3   -0.79541816E-03 -0.77731251E-04 -0.57112461E-02  0.73020118E-03  0.13627592E-02 -0.14281337E-03
    1    4   -0.23772859E-02 -0.25079045E-02 -0.10536402E-02 -0.66274336E-03 -0.45163143E-03 -0.13530223E-02
    2    4   -0.13038710E-02  0.33549102E-03  0.12916236E-03 -0.11793633E-02 -0.18488116E-02  0.26998082E-02
    3    4   -0.11090237E-02 -0.68248548E-04 -0.12714183E-02  0.64383655E-04  0.11256252E-02  0.23045885E-03
    4    4    0.11442069E-03 -0.42570286E-03 -0.85846421E-04  0.18703850E-03  0.19908946E-04  0.28958443E-03

    2   -1    0
    1    1   -0.60098892E-03  0.14715183E-03  0.66989866E-04  0.19573274E-03 -0.14255593E-04  0.19601331E-04
    2    1   -0.53848299E-03 -0.53356654E-02 -0.72164785E-03 -0.48822373E-02  0.21750056E-03  0.16305489E-02
    3    1   -0.11307799E-02  0.14436505E-02 -0.11800720E-02 -0.17150379E-03  0.18302356E-02 -0.65382305E-03
    4    1   -0.20137145E-02  0.50164092E-02 -0.20782543E-02  0.21934891E-02  0.10134836E-02 -0.29893174E-04
    1    2   -0.63829667E-03  0.11066499E-02  0.71471694E-03  0.11613251E-02  0.69084042E-03 -0.13853169E-02
    2    2    0.44029238E-03 -0.49954872E-05  0.46888525E-03 -0.47065883E-04  0.33237559E-03 -0.62585392E-04
    3    2    0.57620478E-03  0.39687004E-02  0.17238985E-02  0.19719438E-02 -0.19154912E-02 -0.34218848E-02
    4    2   -0.14851984E-02  0.26637146E-02 -0.16526909E-03  0.32624665E-02  0.19272703E-03 -0.17139279E-02
    1    3   -0.46814569E-03  0.96276015E-03 -0.10220083E-02  0.57913598E-03  0.48360469E-03 -0.56134500E-03
    2    3    0.29781343E-02 -0.34655144E-02  0.27270538E-02 -0.40560424E-02 -0.13751747E-02  0.21507943E-02
    3    3   -0.30892436E-04  0.25914160E-03 -0.18560764E-03 -0.54376655E-05 -0.10048610E-03 -0.93062604E-04
    4    3    0.17295337E-02 -0.94098665E-03 -0.34733992E-02 -0.26343902E-03  0.25085639E-02 -0.26215888E-03
    1    4   -0.35755888E-03 -0.21110307E-02 -0.44775014E-03 -0.22065058E-02  0.40613020E-03  0.20111449E-02
    2    4    0.41110495E-02 -0.12646155E-02  0.31433919E-02 -0.13411619E-03 -0.30831439E-02  0.33443435E-02
    3    4    0.21704034E-02  0.33930106E-03 -0.18692390E-02 -0.14155572E-02 -0.93956921E-03 -0.78878437E-03
    4    4    0.44397589E-03 -0.87767187E-03  0.24049136E-03  0.11606709E-03  0.50442481E-03  0.64423906E-04

    2   -1    1
    1    1   -0.10855206E-03 -0.33130767E-04 -0.14598159E-03  0.63613600E-04 -0.10855206E-03 -0.33130767E-04
    2    1    0.55292467E-03 -0.46046026E-04  0.11584825E-02 -0.77736336E-04 -0.88449620E-03  0.64907587E-03
    3    1   -0.14885450E-02  0.70276546E-03 -0.13375138E-02  0.70823685E-03  0.26208980E-02 -0.15425294E-02
    4    1   -0.92657668E-03  0.69698673E-03  0.80857058E-03 -0.13631454E-02  0.21616085E-02 -0.22615204E-02
    1    2    0.27759974E-03 -0.35286370E-03 -0.49701761E-04 -0.58263659E-03 -0.92264456E-03  0.55799320E-03
    2    2   -0.16904032E-03 -0.20011484E-03 -0.23055547E-03 -0.56812805E-04 -0.16904032E-03 -0.20011484E-03
    3    2   -0.86840803E-03 -0.19438789E-02 -0.15412773E-03 -0.11136344E-02  0.15954310E-02  0.29014417E-02
    4    2   -0.31815775E-02 -0.27742090E-02  0.57248413E-03  0.18849320E-03  0.13128128E-02  0.16628409E-02
    1    3   -0.28478191E-02 -0.26218111E-02 -0.21504892E-02 -0.17327088E-02  0.17942689E-02  0.88436915E-03
    2    3   -0.96529596E-03  0.21102415E-02 -0.37678345E-03  0.14377305E-02  0.55760990E-03 -0.13962593E-02
    3    3    0.25011135E-05  0.95183531E-05  0.34503029E-04 -0.96034028E-05  0.25011135E-05  0.95183531E-05
    4    3    0.21168833E-03  0.93221644E-03 -0.16609593E-02  0.46859544E-03 -0.16058970E-02  0.71412097E-03
    1    4   -0.25166180E-02 -0.12947823E-02  0.40643699E-03  0.12683372E-02  0.17458753E-02  0.22966140E-02
    2    4   -0.18356945E-02  0.14426917E-02  0.86293575E-03 -0.14628570E-03  0.14350138E-02 -0.23182185E-02
    3    4   -0.10788443E-02  0.47882448E-04 -0.18930282E-02 -0.73739619E-03 -0.17048912E-03 -0.53734342E-03
    4    4    0.78552311E-04  0.10096130E-03  0.22284245E-03 -0.41092360E-04  0.78552311E-04  0.10096130E-03

    2    0   -2
    1    1    0.30548864E-03  0.30547268E-18  0.11960055E-03  0.15716155E-18  0.11960055E-03  0.53753273E-20
    2    1   -0.33357064E-03 -0.63428146E-03 -0.14697256E-02 -0.38953075E-02  0.86430193E-03  0.39184817E-02
    3    1    0.65379090E-04  0.38702975E-03 -0.16005897E-02  0.16938446E-02  0.21781252E-02 -0.23609077E-02
    4    1   -0.11630573E-02  0.21916503E-02 -0.14994674E-01  0.19428355E-01  0.15317147E-01 -0.20309942E-01
    1    2    0.31550609E-03 -0.11372573E-02  0.86430193E-03 -0.39184817E-02 -0.14697256E-02  0.38953075E-02
    2    2   -0.13609034E-03 -0.10387527E-18 -0.39013718E-03 -0.34396728E-18 -0.39013718E-03 -0.12099960E-18
    3    2    0.25317044E-03  0.61820449E-03  0.14023308E-03 -0.15464847E-03 -0.14324924E-03  0.26501229E-03
    4    2    0.11398906E-02  0.86805058E-03 -0.33775562E-02 -0.37162484E-02  0.35321448E-02  0.29922158E-02
    1    3    0.35230363E-03  0.30314750E-03  0.21781252E-02  0.23609077E-02 -0.16005897E-02 -0.16938446E-02
    2    3    0.34186742E-04 -0.40714221E-03 -0.14324924E-03 -0.26501229E-03  0.14023308E-03  0.15464847E-03
    3    3    0.27144761E-04  0.76810759E-20  0.24534274E-04 -0.36429975E-19  0.24534274E-04  0.43350014E-19
    4    3   -0.13657299E-02 -0.65646046E-03  0.37195404E-02 -0.25375796E-03 -0.43154721E-02  0.22490549E-02
    1    4   -0.15911119E-02 -0.10396006E-02  0.15317147E-01  0.20309942E-01 -0.14994674E-01 -0.19428355E-01
    2    4   -0.39548118E-03  0.90280926E-03  0.35321448E-02 -0.29922158E-02 -0.33775562E-02  0.37162484E-02
    3    4   -0.15051878E-04  0.91488639E-03 -0.43154721E-02 -0.22490549E-02  0.37195404E-02  0.25375796E-03
    4    4   -0.18541130E-04 -0.19341578E-18  0.20285412E-04  0.32123485E-18  0.20285412E-04  0.25754598E-18

    2    0   -1
    1    1   -0.27990114E-03  0.96923160E-04  0.77895160E-04  0.12644277E-03 -0.24167408E-03  0.29616881E-03
    2    1   -0.98182177E-03 -0.14981839E-02 -0.63584680E-03 -0.77267906E-03  0.47267046E-03  0.91807693E-03
    3    1   -0.28133412E-02  0.24705292E-02 -0.19980097E-02  0.23560825E-02  0.40352286E-02 -0.30436901E-02
    4    1   -0.10578627E-02 -0.87342008E-03 -0.44140596E-02  0.15792940E-02  0.36498507E-03  0.13552538E-02
    1    2   -0.38561607E-03  0.14105064E-02 -0.13616754E-02  0.41929311E-02  0.13936829E-02 -0.48507369E-02
    2    2   -0.64801702E-05 -0.12484279E-03  0.39530871E-04  0.40985272E-04  0.11157929E-03  0.59413576E-04
    3    2    0.31308947E-03  0.14106750E-02  0.29859590E-03  0.90546994E-03 -0.14152805E-02 -0.36162169E-02
    4    2    0.48651662E-03  0.13203201E-02  0.18689516E-02  0.30995697E-02 -0.36282581E-02 -0.51268849E-02
    1    3   -0.16797295E-02 -0.19373999E-02 -0.33999337E-02 -0.37902358E-02  0.37047696E-02  0.40349726E-02
    2    3   -0.49342957E-03 -0.12787603E-02 -0.12836655E-03 -0.15132045E-02  0.66601474E-04  0.12487071E-02
    3    3    0.24025664E-03  0.65321387E-04 -0.10622899E-04 -0.51361209E-04  0.13417659E-03 -0.23609839E-03
    4    3   -0.20823314E-02 -0.46326663E-03 -0.34785223E-02  0.52868957E-03  0.25740836E-03  0.13889510E-02
    1    4   -0.22140928E-02 -0.32565278E-02  0.74260102E-03 -0.34393152E-02  0.13885603E-02  0.52848767E-02
    2    4    0.62761937E-03 -0.79892542E-03  0.15693979E-02  0.29638920E-03 -0.74493739E-03  0.11322859E-02
    3    4    0.14872580E-02  0.34140409E-03 -0.25398024E-02 -0.16102964E-02  0.60018520E-03  0.86678867E-03
    4    4   -0.84325984E-03  0.24741880E-04  0.47191349E-03 -0.19829384E-03 -0.25656250E-03 -0.81915366E-04

    2    0    0
    1    1    0.82663612E-03  0.40307215E-16 -0.10275607E-03 -0.39988609E-16  0.82663612E-03  0.41593074E-16
    2    1   -0.49341470E-03  0.45121014E-03 -0.26306763E-03 -0.82964853E-03 -0.58264364E-03 -0.41849491E-03
    3    1    0.22313174E-02 -0.26172778E-02  0.10102399E-02 -0.52549502E-03 -0.37729624E-02  0.30736335E-02
    4    1   -0.27185703E-02  0.11972344E-02 -0.18941489E-02  0.34136693E-03  0.14805892E-02 -0.69193654E-04
    1    2   -0.58264364E-03  0.41849491E-03 -0.91071176E-03  0.14803234E-03 -0.49341470E-03 -0.45121014E-03
    2    2   -0.62602820E-03 -0.40034744E-16 -0.28980057E-03 -0.42546339E-16 -0.62602820E-03 -0.41399460E-16
    3    2   -0.91533062E-03 -0.55061655E-03 -0.47223256E-03  0.27888492E-03  0.19003454E-02  0.29975689E-02
    4    2   -0.85403164E-03  0.21530864E-05  0.17191420E-02  0.36138179E-02  0.44212220E-02  0.17801491E-02
    1    3   -0.37729624E-02 -0.30736335E-02  0.12196873E-02  0.65349314E-03  0.22313174E-02  0.26172778E-02
    2    3    0.19003454E-02 -0.29975689E-02 -0.20638736E-03  0.27200095E-03 -0.91533062E-03  0.55061655E-03
    3    3   -0.32687953E-03 -0.40635192E-16  0.16370602E-03  0.41319467E-16 -0.32687953E-03  0.40546679E-16
    4    3   -0.23748515E-01  0.52421675E-02  0.13995026E-02  0.14932414E-02  0.23366914E-01 -0.52713735E-02
    1    4    0.14805892E-02  0.69193654E-04  0.20448723E-03 -0.22742956E-02 -0.27185703E-02 -0.11972344E-02
    2    4    0.44212220E-02 -0.17801491E-02  0.26541797E-02 -0.16527587E-02 -0.85403164E-03 -0.21530864E-05
    3    4    0.23366914E-01  0.52713735E-02 -0.28811005E-02  0.11055286E-02 -0.23748515E-01 -0.52421675E-02
    4    4    0.77666070E-03  0.42202055E-16 -0.11667229E-02  0.40399086E-16  0.77666070E-03 -0.42211802E-16

    2    1   -2
    1    1    0.19175896E-04  0.32244754E-04 -0.43386176E-04 -0.20061765E-03 -0.43386176E-04 -0.20061765E-03
    2    1   -0.31857783E-03 -0.12785353E-02 -0.42735679E-03 -0.12410928E-02  0.84240041E-04  0.61969590E-03
    3    1    0.10411679E-02 -0.79746216E-04  0.21065437E-02 -0.10977331E-02 -0.19686289E-02  0.55409710E-03
    4    1   -0.10060129E-02  0.15120921E-02  0.76116222E-03  0.28323218E-03  0.21994830E-03  0.22246673E-03
    1    2   -0.97243002E-03  0.14608524E-02 -0.86887111E-03  0.24038076E-02  0.26371696E-03 -0.89269049E-03
    2    2   -0.46950226E-04  0.78287889E-04  0.23846940E-04  0.48693424E-04  0.23846940E-04  0.48693424E-04
    3    2    0.25317479E-03 -0.10299024E-04  0.30814272E-03  0.18281890E-04 -0.11398086E-03  0.18487231E-03
    4    2   -0.57309431E-03 -0.87889077E-03  0.92050536E-03 -0.44835232E-04 -0.14478962E-02 -0.10035825E-02
    1    3    0.99075644E-03  0.62649578E-04  0.27282491E-02  0.13471233E-02 -0.19247313E-02 -0.78942026E-03
    2    3   -0.51739641E-04  0.33951318E-03 -0.36337323E-03  0.67808887E-03  0.29391318E-03 -0.47704664E-03
    3    3   -0.10929407E-04  0.19539932E-04  0.65024508E-04  0.78341966E-06  0.65024508E-04  0.78341966E-06
    4    3   -0.78377472E-03  0.28233865E-03  0.16892188E-02 -0.19206893E-03 -0.34639500E-02  0.69889807E-03
    1    4    0.29643240E-04 -0.10148031E-02 -0.81022487E-03 -0.24944133E-02 -0.64772860E-03 -0.20622612E-02
    2    4   -0.52774931E-03  0.89771079E-03 -0.72722775E-03  0.10143837E-02 -0.36932609E-03 -0.76109007E-04
    3    4   -0.10000663E-02 -0.41517664E-03  0.17273436E-02  0.45313392E-03 -0.12483417E-02 -0.50376708E-04
    4    4    0.10501044E-04  0.13118141E-03 -0.12847975E-03  0.53523032E-04 -0.12847975E-03  0.53523032E-04

    2    1   -1
    1    1   -0.10855206E-03  0.33130767E-04 -0.14598159E-03 -0.63613600E-04 -0.10855206E-03  0.33130767E-04
    2    1   -0.54987515E-03 -0.28736236E-03  0.17183350E-03 -0.30102736E-03  0.65036915E-03  0.62349454E-03
    3    1    0.21415008E-02 -0.15238977E-02  0.11901042E-02 -0.54270330E-03 -0.25005872E-02  0.19822826E-02
    4    1    0.18153763E-02 -0.22579318E-02 -0.10926007E-03 -0.18304594E-03 -0.24471170E-02  0.13334644E-02
    1    2   -0.81797105E-03 -0.66788005E-03 -0.11493800E-02 -0.53601992E-03  0.61944982E-03  0.27241841E-04
    2    2   -0.16904032E-03  0.20011484E-03 -0.23055547E-03  0.56812805E-04 -0.16904032E-03  0.20011484E-03
    3    2    0.10291532E-02  0.22037583E-02  0.46234558E-03  0.14260257E-02 -0.49375268E-03 -0.13027425E-02
    4    2    0.11131524E-02  0.15617232E-02 -0.13518519E-02 -0.10326717E-02 -0.21575559E-02 -0.21991870E-02
    1    3    0.21315701E-02  0.10761054E-02  0.16387522E-02  0.77732724E-03 -0.19778729E-02 -0.11691894E-02
    2    3    0.14963524E-02 -0.29475101E-02  0.48942483E-03 -0.16119004E-02 -0.96748665E-03  0.18978106E-02
    3    3    0.25011135E-05 -0.95183531E-05  0.34503029E-04  0.96034028E-05  0.25011135E-05 -0.95183531E-05
    4    3   -0.87949931E-03  0.73357538E-03 -0.30438442E-03 -0.14673461E-03 -0.17878545E-02  0.14834951E-03
    1    4    0.24637211E-02  0.20692082E-02 -0.57052831E-04 -0.88613321E-03 -0.62446410E-03 -0.88929901E-03
    2    4    0.17322379E-02 -0.20603078E-02 -0.11824620E-02  0.37327416E-03 -0.27621524E-02  0.23767422E-02
    3    4   -0.24815935E-02 -0.51079871E-03 -0.37913927E-03 -0.94523121E-04 -0.66400815E-03 -0.72889417E-03
    4    4    0.78552311E-04 -0.10096130E-03  0.22284245E-03  0.41092360E-04  0.78552311E-04 -0.10096130E-03

    2    2   -2
    1    1    0.10007999E-14 -0.45955225E-19 -0.99364419E-15  0.52716836E-19  0.10016673E-14  0.76975569E-19
    2    1   -0.39217309E-03  0.22838336E-04 -0.39834643E-03  0.16965866E-03  0.51608102E-03  0.28846878E-03
    3    1   -0.75331338E-05  0.23839744E-04 -0.16050534E-05 -0.11617865E-04  0.24423270E-04 -0.34891065E-03
    4    1   -0.30254942E-03  0.24878138E-03  0.45628511E-03  0.52795427E-03 -0.14703025E-03  0.36286041E-03
    1    2    0.39217309E-03  0.22838336E-04  0.39834643E-03  0.16965866E-03 -0.51608102E-03  0.28846878E-03
    2    2   -0.24149926E-15  0.27417674E-19  0.23282564E-15  0.12901569E-19 -0.25450968E-15 -0.17706948E-19
    3    2   -0.16174053E-04 -0.85320849E-04  0.73305690E-04  0.38129593E-04  0.16645947E-04  0.14619964E-03
    4    2   -0.60039714E-03 -0.30949001E-03  0.75694096E-04 -0.49395605E-03 -0.38551759E-03  0.40253534E-04
    1    3    0.75331338E-05  0.23839744E-04  0.16050534E-05 -0.11617865E-04 -0.24423270E-04 -0.34891065E-03
    2    3    0.16174053E-04 -0.85320849E-04 -0.73305690E-04  0.38129593E-04 -0.16645947E-04  0.14619964E-03
    3    3   -0.37206430E-15  0.21534753E-20  0.38496631E-15 -0.84168995E-20 -0.38897786E-15 -0.20151605E-19
    4    3    0.21275789E-03  0.10471548E-03 -0.73250064E-04 -0.11254431E-03 -0.32262271E-03  0.11277594E-03
    1    4    0.30254942E-03  0.24878138E-03 -0.45628511E-03  0.52795427E-03  0.14703025E-03  0.36286041E-03
    2    4    0.60039714E-03 -0.30949001E-03 -0.75694096E-04 -0.49395605E-03  0.38551759E-03  0.40253534E-04
    3    4   -0.21275789E-03  0.10471548E-03  0.73250064E-04 -0.11254431E-03  0.32262271E-03  0.11277594E-03
    4    4    0.20899352E-15 -0.38454825E-19 -0.20595776E-15 -0.12702581E-19  0.23805014E-15  0.19921215E-19

    3   -1   -1
    1    1    0.24832468E-03 -0.21054981E-03 -0.13753097E-03 -0.98260052E-04  0.58069225E-03  0.33776937E-03
    2    1    0.75350882E-04 -0.68523304E-03 -0.23196803E-02 -0.22804605E-02  0.44233088E-03  0.47432988E-03
    3    1    0.78772891E-04 -0.26360605E-03 -0.28080473E-03  0.18874020E-03  0.22651918E-02 -0.55344469E-03
    4    1   -0.98328423E-03  0.14058455E-02 -0.69674904E-03  0.23813092E-03  0.22314816E-03 -0.25006149E-03
    1    2   -0.12343704E-02  0.32584000E-03  0.60613055E-03  0.10642564E-02  0.29184046E-03 -0.55911067E-03
    2    2   -0.17877515E-03 -0.52372732E-04 -0.19460656E-03  0.55366438E-03 -0.20636548E-03  0.36570514E-03
    3    2   -0.89694567E-04  0.19558605E-02 -0.17272468E-03  0.44685298E-03  0.42271719E-03  0.18163985E-03
    4    2    0.24868565E-03  0.40377823E-03  0.96437443E-04  0.76441775E-03 -0.11302250E-02 -0.12190774E-02
    1    3   -0.10643433E-03  0.45949796E-03  0.34251154E-03 -0.73570597E-04  0.16142885E-02 -0.52780255E-03
    2    3   -0.18336817E-03 -0.11645365E-02 -0.53420050E-04  0.12669960E-03  0.51158060E-03  0.20716326E-03
    3    3    0.15423396E-03  0.91696223E-04 -0.14518191E-03 -0.14821319E-03 -0.14388598E-03 -0.13591641E-04
    4    3   -0.11624978E-03  0.39281982E-04 -0.95826378E-03  0.28582108E-03  0.33296807E-03  0.84584427E-04
    1    4   -0.58412884E-03  0.24428685E-03 -0.94875869E-03 -0.20811148E-02 -0.15663645E-02 -0.28923016E-02
    2    4   -0.23454042E-02  0.13898500E-03  0.90311549E-03  0.46508078E-03 -0.10258118E-03  0.40578109E-03
    3    4    0.57609026E-03 -0.96099633E-03 -0.11173410E-02  0.10725455E-02 -0.25743840E-03  0.63463542E-03
    4    4    0.46966758E-04 -0.30524798E-03  0.18742576E-03  0.30317583E-03 -0.11811554E-03 -0.41930501E-03
