# Created by Wannier.jl 2022-09-01T13:05:27.115
CRYSTAL
PRIMVEC
   2.1304216   -1.2299995    0.0000000
   0.0000000    2.4599989    0.0000000
   0.0000000    0.0000000   10.0000000
CONVVEC
   2.1304216   -1.2299995    0.0000000
   0.0000000    2.4599989    0.0000000
   0.0000000    0.0000000   10.0000000
PRIMCOORD
2 1
6    0.0000000    0.0000000    5.0000000
6    0.7101405    1.2299995    5.0000000

BEGIN_BLOCK_DATAGRID_3D
3D_field
BEGIN_DATAGRID_3D_UNKNOWN
14 14 54
  -2.1304216   -1.2299995  -10.0000000
   3.9564972   -2.2842847    0.0000000
   0.0000000    4.5685694    0.0000000
   0.0000000    0.0000000   19.6296296
   3.17372e-02   3.13908e-02   3.12669e-02   3.07914e-02   3.10173e-02   3.12815e-02
   3.14970e-02   3.17372e-02   3.20042e-02   3.23770e-02   3.21573e-02   3.22493e-02
   3.22906e-02   3.19131e-02   3.20042e-02   3.17332e-02   3.11359e-02   3.09786e-02
   3.11762e-02   3.09314e-02   3.13564e-02   3.17330e-02   3.20040e-02   3.23525e-02
   3.25422e-02   3.26273e-02   3.24735e-02   3.22560e-02   3.23770e-02   3.18017e-02
   3.16731e-02   3.13466e-02   3.15742e-02   3.13730e-02   3.15068e-02   3.16722e-02
   3.18017e-02   3.23761e-02   3.25420e-02   3.29000e-02   3.28789e-02   3.24155e-02
   3.21573e-02   3.18886e-02   3.17853e-02   3.14198e-02   3.12402e-02   3.12329e-02
   3.12575e-02   3.14193e-02   3.17861e-02   3.18894e-02   3.21569e-02   3.26247e-02
   3.28761e-02   3.23686e-02   3.22492e-02   3.21914e-02   3.18773e-02   3.15343e-02
   3.12615e-02   3.10868e-02   3.11316e-02   3.12597e-02   3.15356e-02   3.18800e-02
   3.21927e-02   3.22475e-02   3.24699e-02   3.24078e-02   3.22905e-02   3.18606e-02
   3.17226e-02   3.14155e-02   3.12446e-02   3.10938e-02   3.11282e-02   3.10880e-02
   3.12474e-02   3.14207e-02   3.17278e-02   3.18635e-02   3.22847e-02   3.22477e-02
   3.19130e-02   3.17017e-02   3.18405e-02   3.15400e-02   3.12380e-02   3.10409e-02
   3.09301e-02   3.09241e-02   3.10430e-02   3.12454e-02   3.15527e-02   3.18479e-02
   3.17038e-02   3.19070e-02   3.17372e-02   3.17329e-02   3.16721e-02   3.14193e-02
   3.12597e-02   3.10880e-02   3.09241e-02   3.09330e-02   3.10006e-02   3.10528e-02
   3.13553e-02   3.15799e-02   3.15598e-02   3.18264e-02   3.13908e-02   3.13906e-02
   3.11345e-02   3.13437e-02   3.12346e-02   3.10798e-02   3.11177e-02   3.10006e-02
   3.10008e-02   3.10458e-02   3.12055e-02   3.12264e-02   3.12843e-02   3.12554e-02
   3.12668e-02   3.11221e-02   3.12659e-02   3.09757e-02   3.15677e-02   3.12236e-02
   3.11178e-02   3.10528e-02   3.11008e-02   3.10537e-02   3.12057e-02   3.13118e-02
   3.14334e-02   3.10189e-02   3.07914e-02   3.09969e-02   3.09970e-02   3.07910e-02
   3.11706e-02   3.13636e-02   3.12445e-02   3.13553e-02   3.13569e-02   3.13569e-02
   3.13558e-02   3.12290e-02   3.14362e-02   3.09489e-02   3.10173e-02   3.09406e-02
   3.08499e-02   3.09393e-02   3.10155e-02   3.09244e-02   3.14929e-02   3.15799e-02
   3.15954e-02   3.15183e-02   3.15968e-02   3.15817e-02   3.12879e-02   3.10266e-02
   3.12815e-02   3.10048e-02   3.10101e-02   3.10093e-02   3.10040e-02   3.12756e-02
   3.13459e-02   3.15598e-02   3.18211e-02   3.19008e-02   3.19016e-02   3.18220e-02
   3.15656e-02   3.12636e-02   3.14970e-02   3.12119e-02   3.10445e-02   3.07943e-02
   3.10421e-02   3.12098e-02   3.14910e-02   3.18265e-02   3.18694e-02   3.20537e-02
   3.21818e-02   3.20561e-02   3.18714e-02   3.18324e-02   4.33128e-02   3.73001e-02
   3.22182e-02   3.02554e-02   3.07016e-02   3.36561e-02   3.92334e-02   4.33128e-02
   4.96502e-02   5.42306e-02   5.67997e-02   5.62067e-02   5.28128e-02   4.77082e-02
   4.96502e-02   4.25863e-02   3.66653e-02   3.27048e-02   3.12285e-02   3.38568e-02
   3.85452e-02   4.25826e-02   4.96466e-02   5.59630e-02   5.96653e-02   6.07860e-02
   5.87289e-02   5.39193e-02   5.42306e-02   4.75628e-02   4.05815e-02   3.53387e-02
   3.24675e-02   3.31629e-02   3.69476e-02   4.05679e-02   4.75624e-02   5.42170e-02
   5.96505e-02   6.25122e-02   6.17752e-02   5.80186e-02   5.67996e-02   5.06726e-02
   4.36838e-02   3.77276e-02   3.36948e-02   3.24192e-02   3.49214e-02   3.76956e-02
   4.36935e-02   5.06823e-02   5.67677e-02   6.07423e-02   6.17334e-02   5.96539e-02
   5.62066e-02   5.12786e-02   4.51741e-02   3.90494e-02   3.41095e-02   3.17464e-02
   3.23928e-02   3.40526e-02   3.90737e-02   4.52278e-02   5.13029e-02   5.61497e-02
   5.86287e-02   5.78999e-02   5.28127e-02   4.98775e-02   4.48526e-02   3.93563e-02
   3.45915e-02   3.17852e-02   3.06684e-02   3.17012e-02   3.46273e-02   3.94690e-02
   4.49653e-02   4.99134e-02   5.27287e-02   5.37437e-02   4.77081e-02   4.59557e-02
   4.26762e-02   3.85885e-02   3.44124e-02   3.14193e-02   2.98474e-02   2.97183e-02
   3.14599e-02   3.45863e-02   3.88083e-02   4.28500e-02   4.59963e-02   4.75790e-02
   4.33128e-02   4.25826e-02   4.05678e-02   3.76956e-02   3.40526e-02   3.17012e-02
   2.97183e-02   2.96196e-02   3.00668e-02   3.24166e-02   3.52343e-02   3.87064e-02
   4.13745e-02   4.29012e-02   3.73000e-02   3.72964e-02   3.66398e-02   3.52783e-02
   3.35925e-02   3.15939e-02   3.04653e-02   3.00667e-02   3.00704e-02   3.07517e-02
   3.22173e-02   3.42443e-02   3.58412e-02   3.68277e-02   3.22181e-02   3.26762e-02
   3.22045e-02   3.26443e-02   3.23453e-02   3.22332e-02   3.21482e-02   3.24166e-02
   3.22319e-02   3.24302e-02   3.22321e-02   3.23106e-02   3.25098e-02   3.26637e-02
   3.02553e-02   2.93599e-02   2.93490e-02   3.02233e-02   3.11262e-02   3.29769e-02
   3.46579e-02   3.52343e-02   3.59774e-02   3.59883e-02   3.52663e-02   3.42881e-02
   3.25516e-02   3.08145e-02   3.07016e-02   2.85351e-02   2.79494e-02   2.85102e-02
   3.06447e-02   3.37043e-02   3.67030e-02   3.87064e-02   4.06427e-02   4.12215e-02
   4.06677e-02   3.87633e-02   3.59414e-02   3.27825e-02   3.36561e-02   3.02780e-02
   2.82094e-02   2.81986e-02   3.02376e-02   3.35721e-02   3.83422e-02   4.13745e-02
   4.50795e-02   4.71000e-02   4.71108e-02   4.51199e-02   4.14586e-02   3.70033e-02
   3.92334e-02   3.42153e-02   3.02834e-02   2.91246e-02   3.02744e-02   3.41687e-02
   3.91043e-02   4.29013e-02   4.83131e-02   5.20532e-02   5.31744e-02   5.20623e-02
   4.83597e-02   4.30304e-02   3.27154e-02   2.10833e-02   1.23474e-02   7.54113e-03
   8.54986e-03   1.50277e-02   2.48398e-02   3.27154e-02   4.43400e-02   5.37867e-02
   5.83280e-02   5.74095e-02   5.09713e-02   4.04833e-02   4.43401e-02   3.12550e-02
   1.97341e-02   1.20031e-02   1.02841e-02   1.40586e-02   2.33887e-02   3.12485e-02
   4.43336e-02   5.58479e-02   6.38813e-02   6.59021e-02   6.16995e-02   5.21166e-02
   5.37867e-02   4.04245e-02   2.74616e-02   1.70787e-02   1.20306e-02   1.31549e-02
   2.02123e-02   2.74348e-02   4.04249e-02   5.37599e-02   6.38538e-02   6.85334e-02
   6.75715e-02   6.08133e-02   5.83280e-02   4.64077e-02   3.33402e-02   2.16060e-02
   1.40908e-02   1.23847e-02   1.62209e-02   2.15460e-02   3.33604e-02   4.64280e-02
   5.82681e-02   6.58144e-02   6.74962e-02   6.36671e-02   5.74095e-02   4.80051e-02
   3.63699e-02   2.47975e-02   1.61033e-02   1.17834e-02   1.26995e-02   1.59972e-02
   2.48439e-02   3.64751e-02   4.80516e-02   5.73034e-02   6.15190e-02   6.05964e-02
   5.09713e-02   4.46388e-02   3.57409e-02   2.54849e-02   1.67563e-02   1.07766e-02
   9.59242e-03   1.06107e-02   1.68282e-02   2.57010e-02   3.59571e-02   4.47108e-02
   5.08053e-02   5.17986e-02   4.04832e-02   3.75896e-02   3.14262e-02   2.37749e-02
   1.65276e-02   1.06480e-02   8.03587e-03   7.80516e-03   1.07358e-02   1.68565e-02
   2.41965e-02   3.17552e-02   3.76774e-02   4.02525e-02   3.27153e-02   3.12485e-02
   2.74348e-02   2.15460e-02   1.59972e-02   1.06107e-02   7.80515e-03   6.83655e-03
   8.47459e-03   1.21478e-02   1.78378e-02   2.35678e-02   2.89264e-02   3.19209e-02
   2.10832e-02   2.10768e-02   1.96876e-02   1.69654e-02   1.38926e-02   1.14984e-02
   9.22110e-03   8.47457e-03   8.48107e-03   9.87820e-03   1.23220e-02   1.49496e-02
   1.79206e-02   2.04564e-02   1.23473e-02   1.17890e-02   1.23206e-02   1.18898e-02
   1.18021e-02   1.20322e-02   1.22332e-02   1.21478e-02   1.22077e-02   1.21745e-02
   1.23495e-02   1.20561e-02   1.19929e-02   1.21021e-02   7.54109e-03   6.12525e-03
   6.10560e-03   7.48111e-03   1.00860e-02   1.28025e-02   1.57257e-02   1.78378e-02
   1.93571e-02   1.93768e-02   1.78978e-02   1.50373e-02   1.20682e-02   9.46912e-03
   8.54984e-03   4.61371e-03   3.07659e-03   4.56654e-03   8.44372e-03   1.37735e-02
   1.97460e-02   2.35678e-02   2.76510e-02   2.90881e-02   2.76982e-02   2.36740e-02
   1.81011e-02   1.23190e-02   1.50277e-02   7.79945e-03   3.72104e-03   3.70203e-03
   7.72972e-03   1.48617e-02   2.30174e-02   2.89264e-02   3.58271e-02   3.98979e-02
   3.99170e-02   3.58969e-02   2.90924e-02   2.07744e-02   2.48398e-02   1.45829e-02
   8.10683e-03   5.51302e-03   8.09579e-03   1.45048e-02   2.46091e-02   3.19209e-02
   4.20861e-02   4.90612e-02   5.16585e-02   4.90722e-02   4.21641e-02   3.21517e-02
  -7.38340e-03  -2.37932e-02  -3.67544e-02  -4.30413e-02  -4.16937e-02  -3.29521e-02
  -1.83626e-02  -7.38341e-03   9.23817e-03   2.21542e-02   2.87558e-02   2.73188e-02
   1.83298e-02   3.75177e-03   9.23818e-03  -9.21804e-03  -2.56687e-02  -3.61468e-02
  -3.89303e-02  -3.32769e-02  -2.04921e-02  -9.22655e-03   9.22967e-03   2.59862e-02
   3.67356e-02   3.96982e-02   3.37249e-02   2.07862e-02   2.21541e-02   3.77929e-03
  -1.45659e-02  -2.85542e-02  -3.54275e-02  -3.38729e-02  -2.43582e-02  -1.46001e-02
   3.78211e-03   2.21200e-02   3.66987e-02   4.42161e-02   4.25465e-02   3.22051e-02
   2.87558e-02   1.26448e-02  -5.64299e-03  -2.15843e-02  -3.20653e-02  -3.45670e-02
  -2.90873e-02  -2.16619e-02  -5.61051e-03   1.26772e-02   2.86783e-02   3.95830e-02
   4.24428e-02   3.63677e-02   2.73187e-02   1.48743e-02  -1.40839e-03  -1.72222e-02
  -2.92711e-02  -3.53463e-02  -3.38181e-02  -2.94089e-02  -1.71500e-02  -1.25209e-03
   1.49466e-02   2.71809e-02   3.34795e-02   3.19101e-02   1.83297e-02   1.01700e-02
  -2.41262e-03  -1.57816e-02  -2.80176e-02  -3.56174e-02  -3.73825e-02  -3.58290e-02
  -2.79057e-02  -1.54705e-02  -2.10153e-03   1.02819e-02   1.81181e-02   2.03539e-02
   3.75173e-03  -4.00100e-04  -8.46735e-03  -1.85991e-02  -2.85887e-02  -3.59331e-02
  -3.95703e-02  -3.98733e-02  -3.57997e-02  -2.81147e-02  -1.79982e-02  -7.99330e-03
  -2.66778e-04   3.44870e-03  -7.38345e-03  -9.22658e-03  -1.46001e-02  -2.16619e-02
  -2.94089e-02  -3.58290e-02  -3.98733e-02  -4.07580e-02  -3.90284e-02  -3.39334e-02
  -2.68622e-02  -1.92410e-02  -1.25328e-02  -8.35859e-03  -2.37933e-02  -2.38018e-02
  -2.57326e-02  -2.87107e-02  -3.23372e-02  -3.57408e-02  -3.79015e-02  -3.90284e-02
  -3.90199e-02  -3.72597e-02  -3.46677e-02  -3.10171e-02  -2.75177e-02  -2.50587e-02
  -3.67544e-02  -3.64562e-02  -3.67886e-02  -3.63032e-02  -3.57476e-02  -3.50635e-02
  -3.44710e-02  -3.39334e-02  -3.36581e-02  -3.38992e-02  -3.46309e-02  -3.49097e-02
  -3.58293e-02  -3.63408e-02  -4.30413e-02  -4.51230e-02  -4.51491e-02  -4.31188e-02
  -3.92022e-02  -3.43694e-02  -2.97869e-02  -2.68622e-02  -2.47540e-02  -2.47279e-02
  -2.67847e-02  -3.09019e-02  -3.57256e-02  -4.02028e-02  -4.16937e-02  -4.71313e-02
  -4.94386e-02  -4.71925e-02  -4.18315e-02  -3.36714e-02  -2.50111e-02  -1.92410e-02
  -1.32781e-02  -1.07977e-02  -1.32169e-02  -1.91032e-02  -2.72723e-02  -3.60458e-02
  -3.29521e-02  -4.27538e-02  -4.83919e-02  -4.84108e-02  -4.28412e-02  -3.31637e-02
  -2.10112e-02  -1.25328e-02  -2.23984e-03   3.39820e-03   3.41711e-03  -2.15240e-03
  -1.23212e-02  -2.46264e-02  -1.83626e-02  -3.23457e-02  -4.24659e-02  -4.59005e-02
  -4.24708e-02  -3.24369e-02  -1.86656e-02  -8.35856e-03   5.85239e-03   1.61094e-02
   1.98621e-02   1.61144e-02   5.94362e-03  -8.05551e-03  -7.81323e-02  -9.83652e-02
  -1.13711e-01  -1.21352e-01  -1.19655e-01  -1.09148e-01  -9.19397e-02  -7.81323e-02
  -5.76569e-02  -4.15406e-02  -3.34427e-02  -3.51970e-02  -4.63984e-02  -6.42189e-02
  -5.76569e-02  -8.01767e-02  -9.94901e-02  -1.12361e-01  -1.15545e-01  -1.08844e-01
  -9.34012e-02  -8.01852e-02  -5.76654e-02  -3.76568e-02  -2.40354e-02  -2.07490e-02
  -2.77107e-02  -4.40739e-02  -4.15406e-02  -6.36231e-02  -8.52601e-02  -1.01628e-01
  -1.09980e-01  -1.08117e-01  -9.65542e-02  -8.52953e-02  -6.36128e-02  -4.15757e-02
  -2.40734e-02  -1.51830e-02  -1.73038e-02  -2.93560e-02  -3.34427e-02  -5.29259e-02
  -7.40531e-02  -9.24116e-02  -1.04378e-01  -1.07675e-01  -1.00922e-01  -9.24923e-02
  -7.40006e-02  -5.28734e-02  -3.35235e-02  -2.08713e-02  -1.74195e-02  -2.43988e-02
  -3.51970e-02  -5.00275e-02  -6.82795e-02  -8.63330e-02  -1.00310e-01  -1.06847e-01
  -1.05226e-01  -1.00452e-01  -8.62237e-02  -6.80774e-02  -4.99181e-02  -3.53396e-02
  -2.79760e-02  -2.96892e-02  -4.63984e-02  -5.58187e-02  -6.96929e-02  -8.52029e-02
  -9.81131e-02  -1.06462e-01  -1.08642e-01  -1.06678e-01  -9.79477e-02  -8.48066e-02
  -6.92966e-02  -5.56532e-02  -4.66151e-02  -4.45463e-02  -6.42189e-02  -6.90100e-02
  -7.75841e-02  -8.82437e-02  -9.87047e-02  -1.06457e-01  -1.10068e-01  -1.10370e-01
  -1.06247e-01  -9.81087e-02  -8.75032e-02  -7.69881e-02  -6.87999e-02  -6.45202e-02
  -7.81323e-02  -8.01852e-02  -8.52953e-02  -9.24923e-02  -1.00452e-01  -1.06678e-01
  -1.10370e-01  -1.11391e-01  -1.09554e-01  -1.04868e-01  -9.79633e-02  -8.98570e-02
  -8.34208e-02  -7.92183e-02  -9.83652e-02  -9.83737e-02  -9.95619e-02  -1.01807e-01
  -1.04690e-01  -1.07302e-01  -1.09233e-01  -1.09554e-01  -1.09545e-01  -1.08808e-01
  -1.06365e-01  -1.03565e-01  -1.00952e-01  -9.90007e-02  -1.13711e-01  -1.14425e-01
  -1.13746e-01  -1.12539e-01  -1.10359e-01  -1.08266e-01  -1.06013e-01  -1.04868e-01
  -1.04230e-01  -1.04833e-01  -1.06327e-01  -1.08895e-01  -1.10785e-01  -1.12814e-01
  -1.21352e-01  -1.24491e-01  -1.24516e-01  -1.21432e-01  -1.15857e-01  -1.08707e-01
  -1.01773e-01  -9.79633e-02  -9.43682e-02  -9.43430e-02  -9.78825e-02  -1.03443e-01
  -1.10669e-01  -1.17609e-01  -1.19655e-01  -1.27326e-01  -1.29686e-01  -1.27381e-01
  -1.19798e-01  -1.09298e-01  -9.73406e-02  -8.98570e-02  -8.21922e-02  -7.97208e-02
  -8.21368e-02  -8.97145e-02  -1.00686e-01  -1.12481e-01  -1.09148e-01  -1.21755e-01
  -1.28464e-01  -1.28479e-01  -1.21827e-01  -1.09365e-01  -9.39930e-02  -8.34208e-02
  -7.03164e-02  -6.27821e-02  -6.27673e-02  -7.02445e-02  -8.32041e-02  -9.85283e-02
  -9.19397e-02  -1.09247e-01  -1.21154e-01  -1.25523e-01  -1.21126e-01  -1.09296e-01
  -9.22410e-02  -7.92183e-02  -6.13416e-02  -4.88749e-02  -4.44798e-02  -4.89026e-02
  -6.12919e-02  -7.89170e-02  -1.74837e-01  -1.96307e-01  -2.12559e-01  -2.20360e-01
  -2.18737e-01  -2.07740e-01  -1.89392e-01  -1.74837e-01  -1.52330e-01  -1.33949e-01
  -1.24502e-01  -1.26663e-01  -1.39356e-01  -1.59862e-01  -1.52330e-01  -1.75551e-01
  -1.95987e-01  -2.08662e-01  -2.12178e-01  -2.05100e-01  -1.89638e-01  -1.75556e-01
  -1.52335e-01  -1.30148e-01  -1.15550e-01  -1.11614e-01  -1.19657e-01  -1.37125e-01
  -1.33949e-01  -1.57090e-01  -1.78887e-01  -1.95768e-01  -2.03370e-01  -2.01738e-01
  -1.90678e-01  -1.78908e-01  -1.57063e-01  -1.33971e-01  -1.15580e-01  -1.06443e-01
  -1.08253e-01  -1.21397e-01  -1.24502e-01  -1.44327e-01  -1.65397e-01  -1.83302e-01
  -1.94217e-01  -1.96957e-01  -1.91077e-01  -1.83357e-01  -1.65312e-01  -1.44242e-01
  -1.24557e-01  -1.11710e-01  -1.08346e-01  -1.15446e-01  -1.26663e-01  -1.41048e-01
  -1.58679e-01  -1.74786e-01  -1.87003e-01  -1.92827e-01  -1.91325e-01  -1.87098e-01
  -1.74627e-01  -1.58424e-01  -1.40889e-01  -1.26758e-01  -1.19869e-01  -1.21673e-01
  -1.39356e-01  -1.47869e-01  -1.60144e-01  -1.72757e-01  -1.83547e-01  -1.89969e-01
  -1.91134e-01  -1.90098e-01  -1.83306e-01  -1.72293e-01  -1.59680e-01  -1.47628e-01
  -1.39486e-01  -1.37497e-01  -1.59862e-01  -1.63032e-01  -1.69629e-01  -1.77444e-01
  -1.84470e-01  -1.89490e-01  -1.91394e-01  -1.91551e-01  -1.89167e-01  -1.83779e-01
  -1.76619e-01  -1.68938e-01  -1.62709e-01  -1.60019e-01  -1.74837e-01  -1.75556e-01
  -1.78908e-01  -1.83357e-01  -1.87098e-01  -1.90098e-01  -1.91551e-01  -1.91843e-01
  -1.91295e-01  -1.89285e-01  -1.85922e-01  -1.81876e-01  -1.77637e-01  -1.75113e-01
  -1.96307e-01  -1.96312e-01  -1.96050e-01  -1.95935e-01  -1.94518e-01  -1.93262e-01
  -1.91680e-01  -1.91295e-01  -1.91290e-01  -1.91982e-01  -1.93603e-01  -1.95001e-01
  -1.95897e-01  -1.96058e-01  -2.12559e-01  -2.13809e-01  -2.12581e-01  -2.08829e-01
  -2.03746e-01  -1.97565e-01  -1.92134e-01  -1.89285e-01  -1.87793e-01  -1.89263e-01
  -1.93574e-01  -1.99290e-01  -2.05396e-01  -2.09962e-01  -2.20360e-01  -2.24954e-01
  -2.24968e-01  -2.20416e-01  -2.12479e-01  -2.02346e-01  -1.91988e-01  -1.85922e-01
  -1.80708e-01  -1.80694e-01  -1.85867e-01  -1.94905e-01  -2.05303e-01  -2.15101e-01
  -2.18737e-01  -2.27819e-01  -2.31113e-01  -2.27842e-01  -2.18832e-01  -2.05536e-01
  -1.91487e-01  -1.81876e-01  -1.71662e-01  -1.67997e-01  -1.71639e-01  -1.81781e-01
  -1.95685e-01  -2.09686e-01  -2.07740e-01  -2.21914e-01  -2.29694e-01  -2.29678e-01
  -2.21914e-01  -2.07869e-01  -1.90183e-01  -1.77637e-01  -1.62429e-01  -1.53817e-01
  -1.53833e-01  -1.62429e-01  -1.77507e-01  -1.95687e-01  -1.89392e-01  -2.08258e-01
  -2.21144e-01  -2.25420e-01  -2.21033e-01  -2.08176e-01  -1.89549e-01  -1.75113e-01
  -1.55191e-01  -1.40521e-01  -1.35151e-01  -1.40631e-01  -1.55273e-01  -1.74956e-01
  -2.84648e-01  -3.04267e-01  -3.18077e-01  -3.24469e-01  -3.23215e-01  -3.13974e-01
  -2.98156e-01  -2.84648e-01  -2.63261e-01  -2.44876e-01  -2.35444e-01  -2.37392e-01
  -2.50511e-01  -2.70405e-01  -2.63261e-01  -2.84184e-01  -3.00612e-01  -3.10272e-01
  -3.12212e-01  -3.07677e-01  -2.95624e-01  -2.84177e-01  -2.63255e-01  -2.43031e-01
  -2.28260e-01  -2.24281e-01  -2.32456e-01  -2.49655e-01  -2.44876e-01  -2.64315e-01
  -2.81489e-01  -2.92624e-01  -2.98054e-01  -2.96781e-01  -2.89198e-01  -2.81471e-01
  -2.64254e-01  -2.44859e-01  -2.28255e-01  -2.19287e-01  -2.21363e-01  -2.33488e-01
  -2.35444e-01  -2.50274e-01  -2.65186e-01  -2.76101e-01  -2.82400e-01  -2.83429e-01
  -2.80489e-01  -2.76073e-01  -2.65043e-01  -2.50131e-01  -2.35416e-01  -2.24286e-01
  -2.21381e-01  -2.27664e-01  -2.37392e-01  -2.46533e-01  -2.56527e-01  -2.64699e-01
  -2.68994e-01  -2.70506e-01  -2.70066e-01  -2.68940e-01  -2.64459e-01  -2.56216e-01
  -2.46293e-01  -2.37337e-01  -2.32461e-01  -2.33557e-01  -2.50511e-01  -2.54184e-01
  -2.58459e-01  -2.61389e-01  -2.62106e-01  -2.61709e-01  -2.61130e-01  -2.61581e-01
  -2.61737e-01  -2.60880e-01  -2.57951e-01  -2.53815e-01  -2.50383e-01  -2.49659e-01
  -2.70405e-01  -2.70737e-01  -2.70307e-01  -2.68070e-01  -2.63901e-01  -2.59244e-01
  -2.56550e-01  -2.56299e-01  -2.58704e-01  -2.63167e-01  -2.67267e-01  -2.69574e-01
  -2.70196e-01  -2.70154e-01  -2.84648e-01  -2.84177e-01  -2.81471e-01  -2.76073e-01
  -2.68940e-01  -2.61581e-01  -2.56298e-01  -2.55039e-01  -2.57578e-01  -2.63830e-01
  -2.71484e-01  -2.78112e-01  -2.82597e-01  -2.84393e-01  -3.04267e-01  -3.04261e-01
  -3.00632e-01  -2.92716e-01  -2.82590e-01  -2.70764e-01  -2.61399e-01  -2.57578e-01
  -2.57584e-01  -2.63697e-01  -2.74630e-01  -2.86109e-01  -2.95535e-01  -3.02065e-01
  -3.18077e-01  -3.20897e-01  -3.18059e-01  -3.10364e-01  -2.98334e-01  -2.83925e-01
  -2.70736e-01  -2.63830e-01  -2.59586e-01  -2.63848e-01  -2.74635e-01  -2.88449e-01
  -3.02424e-01  -3.13327e-01  -3.24469e-01  -3.30808e-01  -3.30790e-01  -3.24441e-01
  -3.12401e-01  -2.97277e-01  -2.81299e-01  -2.71484e-01  -2.62945e-01  -2.62963e-01
  -2.71512e-01  -2.86104e-01  -3.02406e-01  -3.16364e-01  -3.23215e-01  -3.33390e-01
  -3.36613e-01  -3.33325e-01  -3.23160e-01  -3.07935e-01  -2.89868e-01  -2.78112e-01
  -2.64958e-01  -2.59726e-01  -2.65023e-01  -2.78167e-01  -2.95530e-01  -3.13258e-01
  -3.13974e-01  -3.28137e-01  -3.35407e-01  -3.35323e-01  -3.27947e-01  -3.13847e-01
  -2.95893e-01  -2.82597e-01  -2.64954e-01  -2.54449e-01  -2.54533e-01  -2.65143e-01
  -2.82724e-01  -3.02061e-01  -2.98156e-01  -3.15722e-01  -3.26860e-01  -3.30752e-01
  -3.26563e-01  -3.15303e-01  -2.97905e-01  -2.84393e-01  -2.63914e-01  -2.48457e-01
  -2.42872e-01  -2.48754e-01  -2.64333e-01  -2.84644e-01  -3.91987e-01  -4.03384e-01
  -4.08252e-01  -4.09808e-01  -4.09331e-01  -4.07171e-01  -4.00190e-01  -3.91987e-01
  -3.75797e-01  -3.59625e-01  -3.49961e-01  -3.52164e-01  -3.64699e-01  -3.81597e-01
  -3.75797e-01  -3.86753e-01  -3.91186e-01  -3.91707e-01  -3.91581e-01  -3.91637e-01
  -3.89956e-01  -3.86720e-01  -3.75764e-01  -3.61177e-01  -3.49098e-01  -3.45804e-01
  -3.52508e-01  -3.66389e-01  -3.59625e-01  -3.67615e-01  -3.69989e-01  -3.68362e-01
  -3.66002e-01  -3.66262e-01  -3.68959e-01  -3.69879e-01  -3.67480e-01  -3.59515e-01
  -3.49019e-01  -3.42223e-01  -3.44064e-01  -3.52626e-01  -3.49961e-01  -3.52935e-01
  -3.50588e-01  -3.43827e-01  -3.37045e-01  -3.35029e-01  -3.38802e-01  -3.43614e-01
  -3.50332e-01  -3.52680e-01  -3.49749e-01  -3.45588e-01  -3.43906e-01  -3.47057e-01
  -3.52164e-01  -3.48523e-01  -3.39704e-01  -3.25997e-01  -3.11665e-01  -3.03560e-01
  -3.05030e-01  -3.11275e-01  -3.25609e-01  -3.39318e-01  -3.48134e-01  -3.51774e-01
  -3.52044e-01  -3.52181e-01  -3.64699e-01  -3.57047e-01  -3.42095e-01  -3.21055e-01
  -2.97915e-01  -2.80274e-01  -2.75472e-01  -2.79546e-01  -2.97310e-01  -3.20541e-01
  -3.41581e-01  -3.56442e-01  -3.63971e-01  -3.65526e-01  -3.81597e-01  -3.73926e-01
  -3.56560e-01  -3.30950e-01  -3.01008e-01  -2.74105e-01  -2.59137e-01  -2.57924e-01
  -2.73136e-01  -3.00296e-01  -3.30336e-01  -3.55848e-01  -3.72956e-01  -3.80384e-01
  -3.91987e-01  -3.86720e-01  -3.69879e-01  -3.43614e-01  -3.11275e-01  -2.79546e-01
  -2.57924e-01  -2.53373e-01  -2.62740e-01  -2.89222e-01  -3.22515e-01  -3.53243e-01
  -3.76236e-01  -3.89265e-01  -4.03383e-01  -4.03351e-01  -3.91107e-01  -3.68266e-01
  -3.36944e-01  -3.03382e-01  -2.75050e-01  -2.62740e-01  -2.62773e-01  -2.83054e-01
  -3.14211e-01  -3.47843e-01  -3.76839e-01  -3.95909e-01  -4.08252e-01  -4.14092e-01
  -4.08143e-01  -3.91610e-01  -3.66016e-01  -3.35188e-01  -3.05251e-01  -2.89222e-01
  -2.79960e-01  -2.89332e-01  -3.14290e-01  -3.45672e-01  -3.75208e-01  -3.97775e-01
  -4.09808e-01  -4.18544e-01  -4.18454e-01  -4.09596e-01  -3.91480e-01  -3.66421e-01
  -3.39270e-01  -3.22515e-01  -3.06750e-01  -3.06840e-01  -3.22727e-01  -3.48059e-01
  -3.75366e-01  -3.98306e-01  -4.09331e-01  -4.19515e-01  -4.22768e-01  -4.19252e-01
  -4.08941e-01  -3.91459e-01  -3.69180e-01  -3.53243e-01  -3.34478e-01  -3.27451e-01
  -3.34741e-01  -3.53633e-01  -3.77303e-01  -3.98221e-01  -4.07171e-01  -4.17495e-01
  -4.21837e-01  -4.21607e-01  -4.16892e-01  -4.06443e-01  -3.89534e-01  -3.76236e-01
  -3.56999e-01  -3.44627e-01  -3.44858e-01  -3.57602e-01  -3.76964e-01  -3.96771e-01
  -4.00190e-01  -4.11184e-01  -4.15622e-01  -4.16712e-01  -4.14933e-01  -4.10030e-01
  -3.98977e-01  -3.89265e-01  -3.70826e-01  -3.55607e-01  -3.49511e-01  -3.56296e-01
  -3.71980e-01  -3.90478e-01  -4.81346e-01  -4.73422e-01  -4.58780e-01  -4.48359e-01
  -4.50817e-01  -4.63669e-01  -4.77319e-01  -4.81346e-01  -4.76305e-01  -4.63247e-01
  -4.53902e-01  -4.56005e-01  -4.67691e-01  -4.79420e-01  -4.76305e-01  -4.65660e-01
  -4.45684e-01  -4.27065e-01  -4.21509e-01  -4.32142e-01  -4.52654e-01  -4.65572e-01
  -4.76217e-01  -4.73630e-01  -4.65578e-01  -4.62547e-01  -4.68305e-01  -4.75823e-01
  -4.63247e-01  -4.48691e-01  -4.21781e-01  -3.93079e-01  -3.75671e-01  -3.79402e-01
  -4.01721e-01  -4.21486e-01  -4.48404e-01  -4.62952e-01  -4.65349e-01  -4.63738e-01
  -4.64121e-01  -4.65879e-01  -4.53902e-01  -4.31654e-01  -3.95139e-01  -3.52739e-01
  -3.20171e-01  -3.10940e-01  -3.28989e-01  -3.52164e-01  -3.94662e-01  -4.31177e-01
  -4.53327e-01  -4.61902e-01  -4.63600e-01  -4.60058e-01  -4.56005e-01  -4.26868e-01
  -3.79013e-01  -3.20187e-01  -2.67589e-01  -2.38270e-01  -2.44819e-01  -2.66533e-01
  -3.19520e-01  -3.78505e-01  -4.26201e-01  -4.54948e-01  -4.66869e-01  -4.64367e-01
  -4.67691e-01  -4.36233e-01  -3.82347e-01  -3.10725e-01  -2.37319e-01  -1.83198e-01
  -1.68068e-01  -1.81244e-01  -2.36260e-01  -3.10246e-01  -3.81868e-01  -4.35175e-01
  -4.65737e-01  -4.73114e-01  -4.79420e-01  -4.54782e-01  -4.03245e-01  -3.29154e-01
  -2.43858e-01  -1.67614e-01  -1.25292e-01  -1.22027e-01  -1.65770e-01  -2.43219e-01
  -3.28989e-01  -4.02606e-01  -4.52938e-01  -4.76156e-01  -4.81346e-01  -4.65572e-01
  -4.21486e-01  -3.52164e-01  -2.66533e-01  -1.81244e-01  -1.22027e-01  -1.07064e-01
  -1.36026e-01  -2.07657e-01  -2.96056e-01  -3.77453e-01  -4.38596e-01  -4.72522e-01
  -4.73422e-01  -4.73334e-01  -4.45394e-01  -3.92596e-01  -3.19495e-01  -2.37187e-01
  -1.66174e-01  -1.36026e-01  -1.36114e-01  -1.85847e-01  -2.64508e-01  -3.45558e-01
  -4.12395e-01  -4.56264e-01  -4.58780e-01  -4.68831e-01  -4.58485e-01  -4.26583e-01
  -3.75142e-01  -3.10414e-01  -2.44104e-01  -2.07657e-01  -1.85168e-01  -2.07952e-01
  -2.64737e-01  -3.33153e-01  -3.94352e-01  -4.38676e-01  -4.48358e-01  -4.61398e-01
  -4.61165e-01  -4.47783e-01  -4.20833e-01  -3.78877e-01  -3.28731e-01  -2.96056e-01
  -2.63566e-01  -2.63799e-01  -2.96632e-01  -3.46204e-01  -3.94873e-01  -4.31812e-01
  -4.50817e-01  -4.58435e-01  -4.59743e-01  -4.57778e-01  -4.49761e-01  -4.31059e-01
  -4.01007e-01  -3.77453e-01  -3.46414e-01  -3.33925e-01  -3.47071e-01  -3.78510e-01
  -4.13832e-01  -4.40189e-01  -4.63669e-01  -4.63846e-01  -4.60270e-01  -4.59738e-01
  -4.62404e-01  -4.61715e-01  -4.50760e-01  -4.38596e-01  -4.14853e-01  -3.98433e-01
  -3.98964e-01  -4.16295e-01  -4.40550e-01  -4.58973e-01  -4.77319e-01  -4.71470e-01
  -4.61437e-01  -4.55451e-01  -4.59929e-01  -4.68782e-01  -4.74055e-01  -4.72522e-01
  -4.59175e-01  -4.43335e-01  -4.37404e-01  -4.44843e-01  -4.61863e-01  -4.75786e-01
  -5.42783e-01  -4.98419e-01  -4.44709e-01  -4.12280e-01  -4.19303e-01  -4.61942e-01
  -5.15905e-01  -5.42783e-01  -5.56705e-01  -5.45940e-01  -5.33867e-01  -5.36394e-01
  -5.50797e-01  -5.55420e-01  -5.56705e-01  -5.09818e-01  -4.43890e-01  -3.89796e-01
  -3.73836e-01  -4.04505e-01  -4.66189e-01  -5.09619e-01  -5.56505e-01  -5.71985e-01
  -5.67833e-01  -5.64757e-01  -5.70104e-01  -5.70124e-01  -5.45940e-01  -4.92229e-01
  -4.13379e-01  -3.36974e-01  -2.95076e-01  -3.04037e-01  -3.59789e-01  -4.12726e-01
  -4.91636e-01  -5.45287e-01  -5.67330e-01  -5.70150e-01  -5.70102e-01  -5.63008e-01
  -5.33867e-01  -4.67195e-01  -3.67826e-01  -2.62396e-01  -1.84700e-01  -1.63363e-01
  -2.05699e-01  -2.61150e-01  -3.66925e-01  -4.66295e-01  -5.32622e-01  -5.63335e-01
  -5.68908e-01  -5.56299e-01  -5.36394e-01  -4.57947e-01  -3.37025e-01  -1.94850e-01
  -6.97602e-02  -3.01342e-03  -1.78579e-02  -6.74639e-02  -1.93678e-01  -3.36296e-01
  -4.56774e-01  -5.34098e-01  -5.66832e-01  -5.59427e-01  -5.50797e-01  -4.74308e-01
  -3.43525e-01  -1.74080e-01   9.40359e-05   1.29419e-01   1.65189e-01   1.33787e-01
   2.03262e-03  -1.73685e-01  -3.43129e-01  -4.72369e-01  -5.46429e-01  -5.63738e-01
  -5.55420e-01  -4.99364e-01  -3.81736e-01  -2.13373e-01  -1.51499e-02   1.68596e-01
   2.72376e-01   2.79829e-01   1.72261e-01  -1.46330e-02  -2.14030e-01  -3.81219e-01
  -4.95699e-01  -5.47968e-01  -5.42783e-01  -5.09618e-01  -4.12726e-01  -2.61150e-01
  -6.74639e-02   1.33787e-01   2.79829e-01   3.16090e-01   2.45076e-01   6.99235e-02
  -1.34774e-01  -3.17011e-01  -4.50089e-01  -5.24274e-01  -4.98418e-01  -4.98219e-01
  -4.43190e-01  -3.35786e-01  -1.83005e-01  -2.74889e-04   1.69956e-01   2.45076e-01
   2.44876e-01   1.21013e-01  -6.21806e-02  -2.38938e-01  -3.75964e-01  -4.64673e-01
  -4.44709e-01  -4.63097e-01  -4.44056e-01  -3.88608e-01  -2.93618e-01  -1.61671e-01
  -1.54502e-02   6.99235e-02   1.24672e-01   6.92707e-02  -6.26836e-02  -2.09712e-01
  -3.29953e-01  -4.10335e-01  -4.12280e-01  -4.26159e-01  -4.25658e-01  -4.11034e-01
  -3.72140e-01  -3.02345e-01  -2.04174e-01  -1.34774e-01  -6.24455e-02  -6.29466e-02
  -1.36020e-01  -2.40360e-01  -3.31147e-01  -3.89411e-01  -4.19303e-01  -4.15376e-01
  -4.10152e-01  -4.13991e-01  -4.17007e-01  -4.01766e-01  -3.57381e-01  -3.17011e-01
  -2.55812e-01  -2.29856e-01  -2.57197e-01  -3.19307e-01  -3.79236e-01  -4.13916e-01
  -4.61942e-01  -4.37266e-01  -4.13997e-01  -4.12888e-01  -4.34180e-01  -4.57574e-01
  -4.61422e-01  -4.50089e-01  -4.13309e-01  -3.84281e-01  -3.85390e-01  -4.16395e-01
  -4.54456e-01  -4.71059e-01  -5.15905e-01  -4.77163e-01  -4.33779e-01  -4.14784e-01
  -4.30630e-01  -4.71327e-01  -5.08452e-01  -5.24274e-01  -5.17056e-01  -4.96585e-01
  -4.86733e-01  -4.99734e-01  -5.22892e-01  -5.31727e-01  -5.83587e-01  -4.74101e-01
  -3.46774e-01  -2.71822e-01  -2.87877e-01  -3.87185e-01  -5.16787e-01  -5.83587e-01
  -6.20909e-01  -6.00539e-01  -5.74841e-01  -5.80716e-01  -6.09949e-01  -6.16498e-01
  -6.20909e-01  -5.15327e-01  -3.72164e-01  -2.60742e-01  -2.30176e-01  -2.90802e-01
  -4.19095e-01  -5.14908e-01  -6.20490e-01  -6.53095e-01  -6.44244e-01  -6.37607e-01
  -6.48580e-01  -6.49748e-01  -6.00539e-01  -4.87454e-01  -3.25472e-01  -1.77857e-01
  -1.00128e-01  -1.16204e-01  -2.21173e-01  -3.24173e-01  -4.86272e-01  -5.99241e-01
  -6.43295e-01  -6.51098e-01  -6.49906e-01  -6.35226e-01  -5.74841e-01  -4.35771e-01
  -2.33057e-01  -2.84733e-02   1.10583e-01   1.47574e-01   7.32180e-02  -2.61044e-02
  -2.31382e-01  -4.34096e-01  -5.72472e-01  -6.34930e-01  -6.47619e-01  -6.19916e-01
  -5.80716e-01  -4.17626e-01  -1.64865e-01   1.20562e-01   3.61355e-01   4.89183e-01
   4.60886e-01   3.65770e-01   1.22621e-01  -1.63747e-01  -4.15567e-01  -5.76301e-01
  -6.42141e-01  -6.27965e-01  -6.09949e-01  -4.50269e-01  -1.79034e-01   1.69521e-01
   5.28184e-01   8.02804e-01   8.80502e-01   8.11660e-01   5.31730e-01   1.69763e-01
  -1.78792e-01  -4.46723e-01  -6.01093e-01  -6.36463e-01  -6.16498e-01  -5.00472e-01
  -2.62781e-01   7.86857e-02   4.90976e-01   9.00924e-01   1.15496e+00   1.17082e+00
   9.08223e-01   4.91445e-01   7.66444e-02  -2.62312e-01  -4.93173e-01  -6.00643e-01
  -5.83587e-01  -5.14908e-01  -3.24173e-01  -2.61044e-02   3.65770e-01   8.11660e-01
   1.17082e+00   1.26378e+00   1.08023e+00   6.65719e-01   2.25650e-01  -1.36043e-01