# Created by Wannier.jl 2022-09-01T13:05:27.316
CRYSTAL
PRIMVEC
   2.1304216   -1.2299995    0.0000000
   0.0000000    2.4599989    0.0000000
   0.0000000    0.0000000   10.0000000
CONVVEC
   2.1304216   -1.2299995    0.0000000
   0.0000000    2.4599989    0.0000000
   0.0000000    0.0000000   10.0000000
PRIMCOORD
2 1
6    0.0000000    0.0000000    5.0000000
6    0.7101405    1.2299995    5.0000000

BEGIN_BLOCK_DATAGRID_3D
3D_field
BEGIN_DATAGRID_3D_UNKNOWN
14 14 54
  -2.1304216   -1.2299995  -10.0000000
   3.9564972   -2.2842847    0.0000000
   0.0000000    4.5685694    0.0000000
   0.0000000    0.0000000   19.6296296
  -1.15935e-03  -1.55081e-03  -1.22544e-03  -1.13906e-03  -1.32312e-03  -1.36323e-03
  -7.86460e-04  -9.72649e-04  -9.67030e-04  -9.93863e-04  -7.65059e-04  -9.13367e-04
  -1.00247e-03  -1.07750e-03  -1.10690e-03  -1.25494e-03  -1.67654e-03  -1.74713e-03
  -1.24969e-03  -1.57147e-03  -1.12343e-03  -1.08882e-03  -8.50020e-04  -7.68251e-04
  -7.10017e-04  -7.32911e-04  -8.94588e-04  -9.08413e-04  -8.40895e-04  -1.27102e-03
  -1.45430e-03  -1.32096e-03  -1.40477e-03  -1.14227e-03  -1.46958e-03  -1.34166e-03
  -1.15401e-03  -9.58253e-04  -6.28744e-04  -8.80121e-04  -5.87654e-04  -9.07513e-04
  -1.08773e-03  -1.10359e-03  -1.10497e-03  -1.60645e-03  -1.22727e-03  -1.55367e-03
  -1.21271e-03  -1.25288e-03  -1.20242e-03  -1.10429e-03  -8.38413e-04  -9.90629e-04
  -6.41718e-04  -9.37049e-04  -8.45280e-04  -9.99711e-04  -1.01844e-03  -1.13313e-03
  -1.49515e-03  -1.55105e-03  -1.58572e-03  -1.12068e-03  -1.46291e-03  -1.12862e-03
  -9.47416e-04  -9.54371e-04  -6.72812e-04  -1.16352e-03  -7.59952e-04  -7.82342e-04
  -1.15045e-03  -6.87374e-04  -1.20899e-03  -1.45616e-03  -1.50835e-03  -1.41966e-03
  -1.46690e-03  -1.51393e-03  -1.19478e-03  -1.11378e-03  -1.25456e-03  -1.22918e-03
  -1.05624e-03  -8.29709e-04  -7.32290e-04  -1.25536e-03  -1.24543e-03  -1.19433e-03
  -1.16148e-03  -1.38086e-03  -1.61442e-03  -1.43176e-03  -1.45867e-03  -1.35651e-03
  -1.15914e-03  -6.46168e-04  -1.19601e-03  -1.00072e-03  -6.00442e-04  -1.11901e-03
  -9.15745e-04  -8.93485e-04  -1.18136e-03  -1.15935e-03  -1.57422e-03  -1.07921e-03
  -1.62408e-03  -1.61824e-03  -1.16442e-03  -1.11791e-03  -1.06488e-03  -7.38659e-04
  -1.31295e-03  -1.45590e-03  -6.30273e-04  -1.25852e-03  -8.11973e-04  -1.02506e-03
  -1.17926e-03  -1.23516e-03  -1.51632e-03  -1.29878e-03  -1.68495e-03  -1.14416e-03
  -1.30957e-03  -1.27912e-03  -9.89610e-04  -5.39044e-04  -2.66332e-04  -7.81762e-04
  -6.89285e-04  -9.72335e-04  -1.16747e-03  -1.30637e-03  -1.24375e-03  -1.40574e-03
  -1.00501e-03  -1.56017e-03  -1.69965e-03  -1.32675e-03  -1.03798e-03  -1.17348e-03
  -9.57448e-04  -1.02589e-03  -6.63004e-04  -8.57818e-04  -7.48754e-04  -1.38119e-03
  -1.42116e-03  -1.28177e-03  -1.51909e-03  -1.57194e-03  -1.43313e-03  -1.34998e-03
  -1.16615e-03  -8.99158e-04  -7.82687e-04  -7.08191e-04  -8.24685e-04  -9.02942e-04
  -8.33711e-04  -8.32397e-04  -8.95343e-04  -1.36684e-03  -1.18046e-03  -1.33523e-03
  -1.18891e-03  -1.60897e-03  -1.55802e-03  -1.11444e-03  -1.15452e-03  -8.12984e-04
  -6.96128e-04  -7.81874e-04  -7.20509e-04  -1.31688e-03  -9.51637e-04  -1.37718e-03
  -1.27893e-03  -1.34151e-03  -1.48220e-03  -1.70254e-03  -1.23808e-03  -1.39132e-03
  -1.27579e-03  -1.30122e-03  -9.97925e-04  -1.28236e-03  -7.31331e-04  -7.82447e-04
  -7.20893e-04  -7.96985e-04  -1.16333e-03  -1.15332e-03  -4.51263e-03  -6.33838e-03
  -7.52783e-03  -7.32281e-03  -5.66202e-03  -3.30833e-03  -1.18725e-03   8.53205e-04
   2.64702e-03   3.61344e-03   3.25250e-03   1.70691e-03  -3.95590e-04  -2.85797e-03
  -1.96967e-03  -4.59680e-03  -6.24348e-03  -7.12644e-03  -7.23322e-03  -5.51239e-03
  -3.60414e-03  -1.96447e-03   5.74267e-04   2.58980e-03   3.72965e-03   3.37455e-03
   2.12836e-03  -3.51347e-04   5.42136e-04  -1.83153e-03  -4.32285e-03  -6.51720e-03
  -7.54459e-03  -7.15300e-03  -5.59188e-03  -4.11411e-03  -1.64104e-03   7.08408e-04
   2.71784e-03   3.76856e-03   3.26436e-03   1.92146e-03   2.77132e-03   6.64523e-04
  -2.15039e-03  -4.30181e-03  -6.57292e-03  -7.30195e-03  -7.17054e-03  -6.28290e-03
  -4.18026e-03  -1.52876e-03   1.09397e-03   2.88831e-03   3.67324e-03   3.62885e-03
   4.03212e-03   2.95592e-03   6.54923e-04  -1.92555e-03  -4.38081e-03  -6.37881e-03
  -7.19589e-03  -7.63870e-03  -6.05493e-03  -4.06574e-03  -1.40663e-03   1.08313e-03
   3.04633e-03   4.34557e-03   3.76693e-03   4.01246e-03   2.87627e-03   5.95765e-04
  -2.02103e-03  -4.32508e-03  -6.23640e-03  -7.19075e-03  -7.04196e-03  -5.85345e-03
  -3.85093e-03  -1.13968e-03   1.35470e-03   3.37616e-03   2.84847e-03   4.13749e-03
   3.72930e-03   2.91158e-03   6.89137e-04  -1.92285e-03  -4.52870e-03  -5.83501e-03
  -6.80281e-03  -7.10026e-03  -5.72253e-03  -3.51061e-03  -1.12923e-03   1.35676e-03
   1.40979e-03   3.44950e-03   3.76423e-03   3.92499e-03   2.04920e-03  -3.27214e-04
  -2.76870e-03  -4.51263e-03  -6.07106e-03  -7.48181e-03  -6.48492e-03  -4.92387e-03
  -2.88450e-03  -1.24077e-04  -1.10862e-03   1.39857e-03   3.41438e-03   4.35052e-03
   3.37271e-03   2.04646e-03  -3.35332e-04  -2.00208e-03  -4.45367e-03  -6.34368e-03
  -6.88942e-03  -6.62112e-03  -4.80603e-03  -2.69255e-03  -3.54794e-03  -9.83142e-04
   1.30508e-03   2.87987e-03   3.59512e-03   3.36409e-03   1.89702e-03   3.34001e-04
  -1.97867e-03  -4.39596e-03  -6.35606e-03  -6.98429e-03  -6.86902e-03  -4.89014e-03
  -5.57481e-03  -3.71165e-03  -1.28508e-03   1.13003e-03   2.95168e-03   3.80827e-03
   3.27416e-03   2.32712e-03   4.06517e-04  -1.97201e-03  -4.19502e-03  -6.09362e-03
  -6.85129e-03  -6.46203e-03  -6.92742e-03  -5.90748e-03  -3.86162e-03  -1.47394e-03
   8.62809e-04   2.56993e-03   3.59028e-03   3.53644e-03   2.33870e-03   3.53255e-04
  -2.34100e-03  -4.18235e-03  -6.32386e-03  -7.07627e-03  -7.19821e-03  -7.02971e-03
  -5.80544e-03  -4.09641e-03  -1.54550e-03   7.24066e-04   2.48794e-03   3.35488e-03
   3.29002e-03   2.66456e-03   2.58242e-04  -1.94614e-03  -4.41891e-03  -6.28059e-03
  -5.64223e-03  -6.90117e-03  -7.30764e-03  -6.13822e-03  -4.23138e-03  -1.68174e-03
   5.42907e-04   2.27711e-03   3.14436e-03   3.40344e-03   2.28595e-03   4.25455e-04
  -1.93388e-03  -4.46220e-03  -6.75487e-03  -1.02586e-02  -1.17635e-02  -1.16168e-02
  -9.12547e-03  -4.95829e-03  -2.57667e-04   2.47841e-03   6.20270e-03   8.08828e-03
   7.50473e-03   5.23166e-03   1.00212e-03  -4.02295e-03  -1.95132e-03  -6.59830e-03
  -1.02802e-02  -1.24756e-02  -1.21068e-02  -9.31356e-03  -5.31820e-03  -1.59393e-03
   2.69475e-03   6.56386e-03   8.14425e-03   7.77295e-03   5.13095e-03   1.16830e-03
   2.91424e-03  -2.03798e-03  -6.62436e-03  -1.03264e-02  -1.22133e-02  -1.20261e-02
  -9.26672e-03  -6.62677e-03  -1.92655e-03   3.15032e-03   6.70737e-03   8.54457e-03
   8.24555e-03   5.71239e-03   7.11553e-03   3.10633e-03  -1.66632e-03  -6.76732e-03
  -1.04415e-02  -1.22306e-02  -1.18758e-02  -1.01248e-02  -6.18110e-03  -1.31595e-03
   3.39871e-03   7.32331e-03   9.20427e-03   8.48205e-03   9.44014e-03   7.26815e-03
   3.13986e-03  -1.78337e-03  -6.69991e-03  -1.02729e-02  -1.22255e-02  -1.19168e-02
  -1.00788e-02  -6.04220e-03  -9.62808e-04   4.04891e-03   7.66675e-03   9.30174e-03
   9.63323e-03   9.32495e-03   7.16466e-03   2.92314e-03  -1.62012e-03  -6.58506e-03
  -1.00872e-02  -1.14630e-02  -1.17826e-02  -9.51239e-03  -5.27239e-03  -6.72423e-04
   4.52548e-03   8.08917e-03   7.20717e-03   9.12426e-03   9.57947e-03   7.24189e-03
   3.11603e-03  -2.13586e-03  -6.45751e-03  -9.23986e-03  -1.15801e-02  -1.12524e-02
  -8.98345e-03  -5.08686e-03   2.79334e-05   4.36967e-03   4.81293e-03   8.09621e-03
   9.99296e-03   8.77098e-03   5.98048e-03   1.25388e-03  -3.60554e-03  -6.75487e-03
  -1.03385e-02  -1.14257e-02  -1.08873e-02  -7.67930e-03  -3.27155e-03   1.58748e-03
  -2.45482e-06   4.42455e-03   8.06134e-03   9.33000e-03   8.58100e-03   5.61406e-03
   9.77641e-04  -2.38093e-03  -6.72100e-03  -1.01806e-02  -1.17701e-02  -1.06260e-02
  -7.69295e-03  -3.37427e-03  -4.91909e-03  -1.30041e-04   4.41732e-03   7.67561e-03
   8.96640e-03   8.00364e-03   5.02399e-03   2.49702e-03  -2.36249e-03  -6.90789e-03
  -1.02254e-02  -1.15749e-02  -1.05841e-02  -7.63926e-03  -8.89400e-03  -5.26062e-03
  -6.73091e-04   3.91448e-03   7.00695e-03   8.42422e-03   7.62805e-03   6.30962e-03
   2.06011e-03  -2.02419e-03  -7.07058e-03  -1.00903e-02  -1.16362e-02  -1.07252e-02
  -1.13207e-02  -9.20344e-03  -5.48153e-03  -1.29118e-03   3.26971e-03   6.66855e-03
   7.90355e-03   7.88305e-03   5.87457e-03   2.03417e-03  -2.28908e-03  -6.94020e-03
  -1.00819e-02  -1.15398e-02  -1.13562e-02  -1.15512e-02  -9.66787e-03  -6.03915e-03
  -1.42322e-03   2.87186e-03   6.23252e-03   7.65397e-03   7.92684e-03   5.87635e-03
   2.12742e-03  -2.26747e-03  -6.78577e-03  -1.02028e-02  -9.31027e-03  -1.16002e-02
  -1.17100e-02  -1.00910e-02  -6.38853e-03  -1.76899e-03   2.55325e-03   5.24345e-03
   7.63690e-03   7.88778e-03   5.93977e-03   2.10267e-03  -2.13477e-03  -6.71299e-03
  -7.68511e-03  -1.27986e-02  -1.52902e-02  -1.45895e-02  -1.14607e-02  -6.18637e-03
   6.04149e-04   4.76420e-03   9.71327e-03   1.22942e-02   1.18706e-02   8.26769e-03
   2.92622e-03  -3.51677e-03  -9.32222e-04  -7.60249e-03  -1.29661e-02  -1.54194e-02
  -1.50319e-02  -1.19443e-02  -5.88634e-03  -1.75603e-03   5.28514e-03   1.01740e-02
   1.29265e-02   1.26437e-02   9.14464e-03   3.55850e-03   6.04545e-03  -6.56569e-04
  -7.85842e-03  -1.29575e-02  -1.56753e-02  -1.51730e-02  -1.18320e-02  -8.10084e-03
  -1.07545e-03   5.72257e-03   1.12386e-02   1.39101e-02   1.35141e-02   9.62362e-03
   1.17908e-02   6.38401e-03  -5.59441e-04  -7.51560e-03  -1.28829e-02  -1.55150e-02
  -1.47536e-02  -1.27975e-02  -7.50627e-03  -4.33880e-04   6.65114e-03   1.20603e-02
   1.46358e-02   1.41235e-02   1.49319e-02   1.20284e-02   6.57001e-03  -5.23760e-04
  -7.66423e-03  -1.29446e-02  -1.52315e-02  -1.51259e-02  -1.21913e-02  -6.41778e-03
   7.10563e-04   7.41856e-03   1.28872e-02   1.50910e-02   1.51540e-02   1.56516e-02
   1.22628e-02   6.62725e-03  -6.29735e-04  -7.60075e-03  -1.26837e-02  -1.47848e-02
  -1.47851e-02  -1.16733e-02  -5.94470e-03   1.40084e-03   8.02045e-03   1.29155e-02
   1.22111e-02   1.56693e-02   1.53024e-02   1.17624e-02   6.13685e-03  -6.75210e-04
  -7.64818e-03  -1.13864e-02  -1.44425e-02  -1.44491e-02  -1.11257e-02  -5.28593e-03
   1.82268e-03   8.59165e-03   8.63811e-03   1.35274e-02   1.54470e-02   1.41950e-02
   1.00807e-02   3.86285e-03  -3.38548e-03  -7.68510e-03  -1.25572e-02  -1.47194e-02
  -1.35866e-02  -9.54243e-03  -2.88786e-03   4.35006e-03   2.03570e-03   8.59766e-03
   1.30171e-02   1.51865e-02   1.40237e-02   9.36599e-03   3.37753e-03  -1.42081e-03
  -8.09667e-03  -1.26745e-02  -1.44520e-02  -1.32506e-02  -8.96114e-03  -2.60948e-03
  -5.33237e-03   1.66293e-03   7.93894e-03   1.27289e-02   1.44558e-02   1.33214e-02
   8.94365e-03   4.97346e-03  -1.90045e-03  -8.31235e-03  -1.28902e-02  -1.44884e-02
  -1.32730e-02  -9.12078e-03  -1.11782e-02  -5.36796e-03   1.20583e-03   7.10795e-03
   1.18708e-02   1.34147e-02   1.21646e-02   9.64028e-03   4.59815e-03  -2.52977e-03
  -8.36902e-03  -1.30294e-02  -1.44134e-02  -1.32353e-02  -1.43383e-02  -1.13760e-02
  -6.19024e-03   3.97338e-04   6.37438e-03   1.06522e-02   1.26592e-02   1.24309e-02
   9.37248e-03   4.15300e-03  -2.26046e-03  -8.45030e-03  -1.26545e-02  -1.43473e-02
  -1.43537e-02  -1.45790e-02  -1.17294e-02  -6.77950e-03  -6.99746e-04   5.42668e-03
   9.89286e-03   1.17656e-02   1.18911e-02   8.98461e-03   4.27720e-03  -2.31959e-03
  -8.16273e-03  -1.24989e-02  -1.11602e-02  -1.45398e-02  -1.48682e-02  -1.23948e-02
  -7.58429e-03  -1.45658e-03   4.95336e-03   8.21350e-03   1.15672e-02   1.18894e-02
   9.38148e-03   4.60913e-03  -1.85806e-03  -7.69576e-03  -7.38496e-03  -1.31997e-02
  -1.66657e-02  -1.62939e-02  -1.25741e-02  -6.24763e-03   1.20267e-03   6.36948e-03
   1.24184e-02   1.52036e-02   1.51797e-02   1.13090e-02   4.74920e-03  -2.32147e-03
   5.69417e-04  -7.06021e-03  -1.34030e-02  -1.67101e-02  -1.66160e-02  -1.29243e-02
  -6.67824e-03  -1.52205e-03   6.46956e-03   1.33241e-02   1.69790e-02   1.64927e-02
   1.27752e-02   5.88361e-03   9.67150e-03   1.54500e-03  -6.46496e-03  -1.34484e-02
  -1.71400e-02  -1.67054e-02  -1.27451e-02  -8.40513e-03  -2.58168e-04   7.99215e-03
   1.47310e-02   1.85874e-02   1.78948e-02   1.40606e-02   1.67125e-02   1.03161e-02
   1.72393e-03  -6.68200e-03  -1.35936e-02  -1.70872e-02  -1.65512e-02  -1.42326e-02
  -7.45940e-03   1.06014e-03   9.84030e-03   1.63831e-02   1.98012e-02   1.90851e-02
   2.13191e-02   1.77082e-02   1.06948e-02   1.95820e-03  -6.32251e-03  -1.31916e-02
  -1.63708e-02  -1.68061e-02  -1.28862e-02  -5.98388e-03   2.43529e-03   1.14120e-02
   1.75877e-02   2.11839e-02   2.14288e-02   2.13870e-02   1.77437e-02   1.06360e-02
   1.55082e-03  -6.70948e-03  -1.32210e-02  -1.58880e-02  -1.59452e-02  -1.20017e-02
  -4.85224e-03   4.02707e-03   1.23734e-02   1.90212e-02   1.76585e-02   2.14813e-02
   2.12931e-02   1.74422e-02   1.00492e-02   1.41098e-03  -6.92209e-03  -1.15207e-02
  -1.54787e-02  -1.55072e-02  -1.13711e-02  -3.90361e-03   4.49629e-03   1.30790e-02
   1.32085e-02   1.95016e-02   2.16864e-02   2.03572e-02   1.45299e-02   6.70790e-03
  -2.14130e-03  -7.38496e-03  -1.34796e-02  -1.61876e-02  -1.40932e-02  -8.61274e-03
  -6.50199e-04   8.03096e-03   5.02952e-03   1.30888e-02   1.88449e-02   2.08376e-02
   1.87166e-02   1.38288e-02   5.64322e-03   1.24186e-04  -8.17585e-03  -1.39005e-02
  -1.60194e-02  -1.40769e-02  -8.71757e-03  -6.65934e-04  -3.25068e-03   4.38762e-03
   1.21494e-02   1.72698e-02   1.95469e-02   1.73737e-02   1.21840e-02   7.09066e-03
  -1.09991e-03  -8.73006e-03  -1.39804e-02  -1.60380e-02  -1.38870e-02  -8.40467e-03
  -1.09438e-02  -4.31865e-03   3.42415e-03   1.09976e-02   1.57580e-02   1.79662e-02
   1.60074e-02   1.29698e-02   5.80887e-03  -2.14307e-03  -9.22949e-03  -1.39749e-02
  -1.59749e-02  -1.38234e-02  -1.52307e-02  -1.15139e-02  -5.19483e-03   2.20717e-03
   9.14558e-03   1.42202e-02   1.61436e-02   1.55572e-02   1.17407e-02   5.36367e-03
  -2.41903e-03  -9.06173e-03  -1.40486e-02  -1.58429e-02  -1.56584e-02  -1.55474e-02
  -1.24540e-02  -6.50548e-03   4.32691e-04   7.33895e-03   1.26450e-02   1.46956e-02
   1.47333e-02   1.15818e-02   5.26516e-03  -1.66487e-03  -8.46211e-03  -1.33228e-02
  -1.19497e-02  -1.54824e-02  -1.62108e-02  -1.31025e-02  -7.65302e-03  -7.72030e-04
   6.14444e-03   1.06060e-02   1.44269e-02   1.47740e-02   1.19047e-02   6.16355e-03
  -8.85844e-04  -7.77306e-03  -6.15717e-03  -1.15060e-02  -1.49162e-02  -1.57625e-02
  -1.28166e-02  -7.15244e-03   1.45543e-04   4.90099e-03   1.15391e-02   1.57858e-02
   1.51056e-02   1.18244e-02   5.77662e-03  -1.58034e-03   3.34032e-03  -4.52078e-03
  -1.11789e-02  -1.61396e-02  -1.66692e-02  -1.40302e-02  -7.44611e-03  -2.22222e-03
   6.35343e-03   1.32693e-02   1.74997e-02   1.81242e-02   1.43632e-02   8.35857e-03
   1.28450e-02   4.76322e-03  -3.96868e-03  -1.16557e-02  -1.61905e-02  -1.74553e-02
  -1.35750e-02  -9.37119e-03  -8.89241e-04   8.61438e-03   1.64362e-02   2.04380e-02
   2.10339e-02   1.72884e-02   2.17983e-02   1.48341e-02   5.88912e-03  -3.62104e-03
  -1.11049e-02  -1.62715e-02  -1.63345e-02  -1.41790e-02  -7.17891e-03   2.10910e-03
   1.12781e-02   1.95385e-02   2.38499e-02   2.39112e-02   2.63483e-02   2.24388e-02
   1.54266e-02   5.71761e-03  -3.82456e-03  -1.13558e-02  -1.55389e-02  -1.57773e-02
  -1.23503e-02  -5.06631e-03   4.98161e-03   1.44201e-02   2.25058e-02   2.58501e-02
   2.70909e-02   2.73407e-02   2.30420e-02   1.52691e-02   5.67044e-03  -3.88595e-03
  -1.10932e-02  -1.41654e-02  -1.47767e-02  -1.03394e-02  -2.55464e-03   7.25958e-03
   1.69107e-02   2.38613e-02   2.29788e-02   2.71765e-02   2.72777e-02   2.22579e-02
   1.41733e-02   4.40304e-03  -4.80456e-03  -9.77320e-03  -1.44231e-02  -1.37331e-02
  -8.82801e-03  -9.24869e-04   9.03059e-03   1.79581e-02   1.85156e-02   2.44744e-02
   2.76453e-02   2.51473e-02   1.91279e-02   9.83169e-03  -1.55883e-04  -6.15716e-03
  -1.27971e-02  -1.46172e-02  -1.25885e-02  -6.04064e-03   2.75533e-03   1.23601e-02
   9.29832e-03   1.78853e-02   2.38978e-02   2.54904e-02   2.32396e-02   1.64293e-02
   7.39603e-03   1.02074e-03  -7.61656e-03  -1.37629e-02  -1.55272e-02  -1.27578e-02
  -5.69768e-03   2.98725e-03  -5.72183e-04   8.45854e-03   1.61634e-02   2.16720e-02
   2.26366e-02   1.99959e-02   1.34461e-02   7.93334e-03  -1.43911e-03  -9.50397e-03
  -1.44188e-02  -1.57358e-02  -1.20496e-02  -5.97942e-03  -8.39167e-03  -1.37719e-03
   6.71672e-03   1.35200e-02   1.84511e-02   1.94891e-02   1.68787e-02   1.32383e-02
   5.51515e-03  -3.02443e-03  -1.04012e-02  -1.52194e-02  -1.55667e-02  -1.26120e-02
  -1.38422e-02  -9.31368e-03  -3.40893e-03   3.95888e-03   1.03261e-02   1.52143e-02
   1.64561e-02   1.57871e-02   1.11880e-02   3.96306e-03  -3.38142e-03  -1.01674e-02
  -1.41440e-02  -1.50704e-02  -1.45535e-02  -1.40500e-02  -1.11413e-02  -5.69893e-03
   1.06896e-03   7.55906e-03   1.23859e-02   1.47824e-02   1.44391e-02   1.02249e-02
   4.48346e-03  -2.70573e-03  -8.77922e-03  -1.30916e-02  -1.09019e-02  -1.42076e-02
  -1.49195e-02  -1.27914e-02  -7.97237e-03  -1.49815e-03   5.61158e-03   9.55692e-03
   1.38659e-02   1.48440e-02   1.15974e-02   6.10356e-03  -5.22773e-04  -7.03315e-03
  -2.96916e-03  -7.21782e-03  -1.07924e-02  -1.28380e-02  -1.35333e-02  -1.10635e-02
  -5.53703e-03  -1.17920e-03   5.06522e-03   8.58407e-03   9.99294e-03   7.56822e-03
   3.88849e-03  -4.49983e-04   5.65134e-03  -4.22361e-04  -6.92360e-03  -1.16383e-02
  -1.58137e-02  -1.57300e-02  -1.21384e-02  -7.52700e-03   3.99779e-04   8.40340e-03
   1.33428e-02   1.47196e-02   1.33797e-02   9.19099e-03   1.57979e-02   9.21004e-03
   8.06655e-04  -6.66546e-03  -1.31784e-02  -1.63927e-02  -1.54147e-02  -1.22794e-02
  -4.05982e-03   5.21285e-03   1.32371e-02   1.95520e-02   2.09816e-02   1.88007e-02
   2.39791e-02   1.85621e-02   1.07600e-02   1.51227e-03  -7.21893e-03  -1.25200e-02
  -1.49127e-02  -1.36431e-02  -8.31930e-03   8.97729e-04   1.11042e-02   1.96640e-02
   2.49640e-02   2.56297e-02   2.91452e-02   2.66149e-02   1.98271e-02   1.12717e-02
   1.30723e-03  -6.44916e-03  -1.12467e-02  -1.22386e-02  -9.74033e-03  -2.59053e-03
   6.45697e-03   1.67389e-02   2.40614e-02   2.87841e-02   3.03718e-02   3.10190e-02
   2.74830e-02   1.93568e-02   1.03475e-02   7.45217e-04  -6.88928e-03  -9.68734e-03
  -1.03097e-02  -6.16977e-03   1.31408e-03   1.11024e-02   2.04602e-02   2.74520e-02
   2.73546e-02   3.11182e-02   3.05968e-02   2.58976e-02   1.78741e-02   8.30616e-03
  -1.15726e-03  -5.96341e-03  -9.88128e-03  -9.30494e-03  -4.72545e-03   3.92659e-03
   1.35238e-02   2.19846e-02   2.27936e-02   2.89120e-02   3.03733e-02   2.78758e-02
   2.15241e-02   1.24787e-02   2.54784e-03  -2.96916e-03  -9.14136e-03  -1.09884e-02
  -8.23305e-03  -1.51040e-03   7.77653e-03   1.73883e-02   1.44336e-02   2.16802e-02
   2.67219e-02   2.82144e-02   2.42499e-02   1.73571e-02   7.35999e-03   7.20047e-04
  -7.98979e-03  -1.23040e-02  -1.23841e-02  -8.13035e-03  -8.72731e-04   8.27383e-03
   4.40461e-03   1.29354e-02   1.94813e-02   2.27388e-02   2.31614e-02   1.91425e-02
   1.12464e-02   5.39982e-03  -4.30377e-03  -1.18060e-02  -1.53733e-02  -1.37108e-02
  -9.12385e-03  -9.69728e-04  -4.05364e-03   3.33439e-03   9.76410e-03   1.51147e-02
   1.76736e-02   1.71991e-02   1.27607e-02   8.57527e-03  -1.19377e-04  -8.21446e-03
  -1.41547e-02  -1.58471e-02  -1.32760e-02  -7.75097e-03  -9.66912e-03  -5.20611e-03
   1.95439e-04   4.64628e-03   9.11514e-03   1.13308e-02   1.17308e-02   9.94773e-03
   4.43758e-03  -2.68064e-03  -9.45955e-03  -1.38091e-02  -1.44516e-02  -1.17069e-02
  -1.08804e-02  -9.41849e-03  -7.06557e-03  -4.63738e-03  -9.05832e-04   3.11405e-03
   6.68097e-03   7.58447e-03   7.05763e-03   3.61841e-03  -2.09805e-03  -6.99507e-03
  -1.05117e-02  -1.10362e-02  -7.51517e-03  -9.52027e-03  -1.08386e-02  -1.10064e-02
  -9.53858e-03  -5.46194e-03  -5.31735e-04   3.31086e-03   6.96281e-03   7.20243e-03
   5.44565e-03   1.40769e-03  -2.83462e-03  -6.01443e-03   1.49290e-04   1.02168e-03
  -1.95830e-03  -8.58062e-03  -1.60502e-02  -2.15101e-02  -2.07393e-02  -1.76696e-02
  -1.11630e-02  -5.99732e-03  -4.29274e-03  -4.03659e-03  -3.64801e-03  -9.19322e-04
   7.53436e-03   6.54145e-03   2.42071e-03  -5.42643e-03  -1.38025e-02  -2.14272e-02
  -2.34774e-02  -2.16605e-02  -1.38147e-02  -5.21582e-03   1.64786e-03   5.76272e-03
   6.55800e-03   7.59768e-03   1.58230e-02   1.32143e-02   9.11426e-03   1.26034e-03
  -7.33681e-03  -1.54831e-02  -2.01030e-02  -2.01515e-02  -1.48578e-02  -5.24493e-03
   4.98466e-03   1.19488e-02   1.53604e-02   1.62292e-02   2.31036e-02   2.12466e-02
   1.63988e-02   9.26956e-03   1.01495e-03  -7.20710e-03  -1.22643e-02  -1.37249e-02
  -1.07670e-02  -3.80308e-03   5.86992e-03   1.47450e-02   2.00004e-02   2.32938e-02
   2.82623e-02   2.72774e-02   2.34619e-02   1.65610e-02   9.84578e-03   1.54719e-03
  -3.90418e-03  -6.09034e-03  -5.44641e-03  -6.66367e-04   7.08636e-03   1.53835e-02
   2.27179e-02   2.66860e-02   3.00641e-02   3.04581e-02   2.77363e-02   2.31105e-02
   1.56584e-02   8.35010e-03   2.73711e-03  -3.66228e-04  -1.35482e-03   6.56871e-04
   6.85519e-03   1.41623e-02   2.15967e-02   2.75613e-02   2.78842e-02   3.04417e-02
   3.02689e-02   2.62758e-02   1.96885e-02   1.17337e-02   4.86800e-03   8.30887e-04
  -1.23177e-03  -3.23598e-04   4.61433e-03   1.07283e-02   1.81186e-02   2.50389e-02
   2.54705e-02   2.88769e-02   2.98770e-02   2.69861e-02   2.07088e-02   1.31663e-02
   4.90360e-03   1.49287e-04  -3.53258e-03  -3.71326e-03   5.04413e-04   6.90571e-03
   1.47858e-02   2.15315e-02   1.91711e-02   2.43798e-02   2.62496e-02   2.48184e-02
   2.10870e-02   1.32925e-02   4.18926e-03  -1.88364e-03  -8.61128e-03  -1.11552e-02
  -8.23582e-03  -1.86565e-03   6.65964e-03   1.43901e-02   1.24677e-02   1.70180e-02
   1.98321e-02   2.06347e-02   1.74071e-02   1.22907e-02   3.14443e-03  -4.03150e-03
  -1.34846e-02  -1.83866e-02  -1.70267e-02  -1.09078e-02  -1.83803e-03   7.15153e-03
   4.32567e-03   9.79146e-03   1.22416e-02   1.25694e-02   1.14647e-02   8.67074e-03
   2.11793e-03  -4.02847e-03  -1.43695e-02  -2.26179e-02  -2.41456e-02  -1.92458e-02
  -1.04921e-02  -1.27208e-03  -1.18972e-03   3.84565e-03   4.56020e-03   3.87210e-03
   2.24151e-03   1.41477e-03  -1.49638e-03  -4.54158e-03  -1.18978e-02  -2.01292e-02
  -2.45807e-02  -2.29605e-02  -1.52812e-02  -6.52989e-03  -4.01968e-03  -2.93593e-04
  -1.06507e-03  -3.77406e-03  -7.78316e-03  -8.74479e-03  -7.84500e-03  -7.41961e-03
  -9.53887e-03  -1.43668e-02  -1.87314e-02  -2.01512e-02  -1.53055e-02  -8.38973e-03
  -2.91621e-03  -6.13232e-04  -2.65396e-03  -8.32133e-03  -1.41453e-02  -1.78689e-02
  -1.57628e-02  -1.33322e-02  -9.65100e-03  -8.41879e-03  -9.91760e-03  -1.14706e-02
  -9.76706e-03  -5.24917e-03   5.13454e-03   1.64965e-02   1.39566e-02  -2.48648e-03
  -2.59938e-02  -4.53452e-02  -5.21506e-02  -4.83286e-02  -3.63447e-02  -2.72022e-02
  -2.56469e-02  -2.61150e-02  -1.97268e-02  -6.23685e-03   7.41792e-03   1.72383e-02
   1.76692e-02   5.87900e-03  -1.54068e-02  -3.75317e-02  -5.08257e-02  -5.17306e-02
  -4.19532e-02  -2.68946e-02  -1.58523e-02  -1.15812e-02  -7.40262e-03   2.96175e-04
   1.23038e-02   1.94000e-02   2.07382e-02   1.49089e-02  -6.63591e-04  -1.93516e-02
  -3.49694e-02  -3.98962e-02  -3.71859e-02  -2.51790e-02  -1.16814e-02  -2.94170e-03
   2.84587e-03   8.13977e-03   1.73659e-02   2.09785e-02   2.28869e-02   2.11672e-02
   1.36521e-02   8.74163e-04  -1.18623e-02  -1.80477e-02  -2.12499e-02  -1.57014e-02
  -5.91043e-03   3.28358e-03   1.04622e-02   1.43492e-02   2.04177e-02   2.21835e-02
   2.38105e-02   2.43915e-02   2.07238e-02   1.61328e-02   8.67342e-03   4.22882e-03
   6.46462e-06  -1.27452e-04   3.76094e-03   9.73762e-03   1.49661e-02   1.89527e-02
   2.21172e-02   2.35418e-02   2.41518e-02   2.32634e-02   2.21834e-02   2.04640e-02
   1.77327e-02   1.64481e-02   1.44411e-02   1.45109e-02   1.52040e-02   1.73141e-02
   1.98028e-02   2.13916e-02   2.39396e-02   2.39964e-02   2.25809e-02   2.11243e-02
   1.89799e-02   1.63684e-02   1.42256e-02   1.41745e-02   1.41629e-02   1.66191e-02
   1.89522e-02   2.16287e-02   2.28805e-02   2.35967e-02   2.41989e-02   2.34090e-02
   2.16357e-02   1.95258e-02   1.59236e-02   1.05084e-02   6.25392e-03   5.13453e-03
   5.08792e-03   9.27602e-03   1.48485e-02   1.98807e-02   2.27225e-02   2.42866e-02
   2.41539e-02   2.26930e-02   2.00479e-02   1.64915e-02   1.09314e-02   3.54412e-03
  -5.82123e-03  -1.13486e-02  -1.52319e-02  -1.15850e-02  -2.34237e-03   9.44956e-03
   1.84601e-02   2.40343e-02   2.17174e-02   2.19071e-02   1.71732e-02   1.14275e-02
   6.62296e-03  -1.94928e-03  -1.36145e-02  -2.28308e-02  -3.42807e-02  -3.62957e-02
  -2.68808e-02  -1.04400e-02   7.26338e-03   1.85792e-02   1.86199e-02   2.04877e-02
   1.35260e-02   5.20555e-03  -1.44565e-03  -7.48707e-03  -1.63232e-02  -2.63826e-02
  -4.28263e-02  -5.30466e-02  -4.88092e-02  -3.13476e-02  -8.57549e-03   1.13526e-02
   1.28728e-02   1.85847e-02   1.11928e-02  -2.10823e-03  -1.23088e-02  -1.69415e-02
  -2.01253e-02  -2.55018e-02  -3.96378e-02  -5.45314e-02  -5.85293e-02  -4.59626e-02
  -2.27717e-02   1.50968e-03   7.49564e-03   1.72157e-02   1.03102e-02  -6.94379e-03
  -2.30410e-02  -3.13374e-02  -3.08642e-02  -2.93298e-02  -3.27509e-02  -4.34265e-02
  -5.21621e-02  -4.78494e-02  -2.97962e-02  -5.65796e-03   4.82590e-03   1.62520e-02
   1.15965e-02  -5.79880e-03  -2.82917e-02  -4.33275e-02  -4.54346e-02  -4.06857e-02
  -3.24453e-02  -3.11004e-02  -3.60495e-02  -3.64932e-02  -2.66539e-02  -8.16592e-03
   1.13180e-02   4.40972e-02   4.28742e-02   3.65346e-03  -5.52078e-02  -1.01616e-01
  -1.11119e-01  -9.40554e-02  -5.53537e-02  -3.29883e-02  -3.98680e-02  -5.47855e-02
  -5.09258e-02  -1.78300e-02   7.27881e-03   3.49507e-02   4.45736e-02   2.18029e-02
  -2.70987e-02  -8.09701e-02  -1.13793e-01  -1.12972e-01  -8.35035e-02  -4.48547e-02
  -2.63010e-02  -2.72707e-02  -2.78453e-02  -1.29618e-02   5.08704e-03   2.54485e-02
   4.05900e-02   3.39883e-02   6.43521e-03  -3.69799e-02  -7.56097e-02  -8.93856e-02
  -8.40327e-02  -5.59226e-02  -2.89862e-02  -1.53702e-02  -1.21740e-02  -5.26060e-03
   3.84310e-03   1.63531e-02   3.13784e-02   3.79948e-02   3.02464e-02   9.99215e-03
  -1.84950e-02  -3.53293e-02  -4.73580e-02  -4.10662e-02  -2.52177e-02  -1.12413e-02
  -4.73970e-03  -1.03444e-03   3.60317e-03   9.81279e-03   2.02812e-02   3.08878e-02
   3.87887e-02   3.75264e-02   2.89039e-02   2.04122e-02   6.82425e-03  -1.43625e-03
  -2.02404e-03  -2.08782e-04   1.11734e-03   1.97924e-03   5.41470e-03   5.69780e-03
   1.04976e-02   2.01337e-02   3.06096e-02   4.01388e-02   4.60143e-02   4.74701e-02
   4.49940e-02   3.83749e-02   2.88054e-02   2.02520e-02   1.20167e-02   7.40367e-03
   1.05692e-02   5.77010e-03   5.65078e-03   8.57953e-03   1.35187e-02   2.12630e-02
   2.93587e-02   3.63876e-02   4.39083e-02   4.76860e-02   4.59209e-02   3.83077e-02
   2.77548e-02   1.71947e-02   1.67300e-02   8.44267e-03   4.43420e-03   3.50765e-03
   4.24513e-03   5.67772e-03   8.14596e-03   1.13180e-02   2.11908e-02   3.26094e-02
   4.00675e-02   4.14797e-02   3.51237e-02   2.42508e-02   2.80101e-02   1.59043e-02
   5.52504e-03  -4.34411e-05  -4.18843e-03  -1.19778e-02  -2.47485e-02  -3.12240e-02
  -3.31256e-02  -1.97847e-02   3.49974e-03   2.37075e-02   3.51600e-02   3.37005e-02
   3.80163e-02   2.59996e-02   9.29918e-03  -2.24801e-03  -7.93203e-03  -1.69563e-02
  -3.68037e-02  -5.55767e-02  -7.92591e-02  -8.09980e-02  -5.55689e-02  -1.59238e-02
   1.82485e-02   3.65303e-02   4.18798e-02   3.67645e-02   1.53553e-02  -7.50585e-03
  -1.66856e-02  -1.91627e-02  -3.20161e-02  -5.07690e-02  -9.10250e-02  -1.18037e-01
  -1.08844e-01  -6.61767e-02  -1.14206e-02   2.85813e-02   3.81548e-02   4.57978e-02
   2.15354e-02  -1.38627e-02  -3.52034e-02  -3.48532e-02  -2.90187e-02  -3.52317e-02
  -6.78669e-02  -1.11908e-01  -1.30381e-01  -1.02870e-01  -4.57339e-02   1.27646e-02
   2.89898e-02   4.92774e-02   3.03614e-02  -1.59470e-02  -5.58799e-02  -6.58921e-02
  -4.88844e-02  -3.69011e-02  -3.94694e-02  -7.27321e-02  -1.07541e-01  -1.07214e-01
  -6.61887e-02  -5.74316e-03   1.74786e-02   4.75315e-02   3.88798e-02  -7.37286e-03
  -6.32024e-02  -9.58394e-02  -8.91540e-02  -6.81593e-02  -3.86429e-02  -3.84792e-02
  -6.27889e-02  -7.98253e-02  -6.32195e-02  -1.73573e-02   2.16473e-02   9.76775e-02
   9.51488e-02   5.70548e-03  -1.26558e-01  -2.29594e-01  -2.20796e-01  -1.44255e-01
   1.91221e-03   6.66980e-02   1.78314e-02  -6.90068e-02  -9.92030e-02  -4.29945e-02
   2.65189e-03   7.01998e-02   9.15826e-02   4.13285e-02  -6.47057e-02  -1.87191e-01
  -2.55504e-01  -2.38696e-01  -1.26801e-01  -8.45816e-03   2.89506e-02  -3.79531e-03
  -4.24653e-02  -3.26206e-02  -7.75099e-03   3.52760e-02   6.97372e-02   6.29626e-02
   4.50335e-03  -8.43974e-02  -1.74391e-01  -2.04696e-01  -1.75996e-01  -8.78841e-02
  -1.61283e-02  -1.68885e-04  -1.54547e-02  -2.22349e-02  -1.65618e-02   5.62291e-03
   3.82339e-02   5.91811e-02   5.16267e-02   1.23481e-02  -4.48972e-02  -8.09512e-02
  -1.08372e-01  -8.73324e-02  -4.35055e-02  -1.75910e-02  -1.55744e-02  -1.91780e-02
  -2.40623e-02  -1.57977e-02   6.74314e-03   3.79520e-02   6.22369e-02   7.16984e-02
   5.97960e-02   4.25881e-02   1.34190e-02  -6.72359e-03  -1.36844e-02  -1.42851e-02
  -1.68500e-02  -2.24222e-02  -2.62590e-02  -2.73086e-02  -1.65811e-02   6.58943e-03
   3.89826e-02   7.28516e-02   9.87605e-02   1.06953e-01   1.03271e-01   8.33784e-02
   5.54832e-02   2.34398e-02  -1.15737e-03  -1.92087e-02  -1.69721e-02  -2.78864e-02
  -2.64827e-02  -1.54816e-02   3.93523e-03   2.83179e-02   5.96586e-02   7.87587e-02
   1.01766e-01   1.08977e-01   9.67115e-02   6.65675e-02   2.99426e-02  -1.49305e-03
  -2.63991e-03  -2.16379e-02  -2.65798e-02  -2.18234e-02  -1.35800e-02  -4.98621e-03
   8.13163e-03   2.16473e-02   4.70903e-02   7.18207e-02   8.46541e-02   7.48331e-02