# Created by Wannier.jl 2022-09-01T13:05:27.310
CRYSTAL
PRIMVEC
   2.1304216   -1.2299995    0.0000000
   0.0000000    2.4599989    0.0000000
   0.0000000    0.0000000   10.0000000
CONVVEC
   2.1304216   -1.2299995    0.0000000
   0.0000000    2.4599989    0.0000000
   0.0000000    0.0000000   10.0000000
PRIMCOORD
2 1
6    0.0000000    0.0000000    5.0000000
6    0.7101405    1.2299995    5.0000000

BEGIN_BLOCK_DATAGRID_3D
3D_field
BEGIN_DATAGRID_3D_UNKNOWN
14 14 54
  -2.1304216   -1.2299995  -10.0000000
   3.9564972   -2.2842847    0.0000000
   0.0000000    4.5685694    0.0000000
   0.0000000    0.0000000   19.6296296
  -1.16206e-03  -1.25733e-03  -1.45699e-03  -1.60965e-03  -1.49910e-03  -1.46052e-03
  -1.16687e-03  -1.16206e-03  -1.18154e-03  -1.30900e-03  -1.42446e-03  -1.37099e-03
  -1.28372e-03  -1.15873e-03  -1.57762e-03  -1.55415e-03  -1.67954e-03  -1.32331e-03
  -1.23038e-03  -1.55545e-03  -1.51363e-03  -1.55415e-03  -1.57763e-03  -1.23800e-03
  -1.24618e-03  -1.28478e-03  -1.18622e-03  -1.34862e-03  -1.08127e-03  -1.55341e-03
  -1.22793e-03  -1.75039e-03  -1.40728e-03  -1.55871e-03  -1.58967e-03  -1.22807e-03
  -1.55340e-03  -1.08141e-03  -1.51941e-03  -1.40922e-03  -1.52331e-03  -1.34216e-03
  -1.62714e-03  -1.65649e-03  -1.49623e-03  -1.14214e-03  -1.25195e-03  -1.14477e-03
  -1.21829e-03  -1.14116e-03  -1.49599e-03  -1.65624e-03  -1.62616e-03  -1.30109e-03
  -1.00763e-03  -1.57582e-03  -1.62064e-03  -1.29091e-03  -1.31695e-03  -1.35714e-03
  -1.32615e-03  -1.57600e-03  -1.47329e-03  -1.32539e-03  -1.35686e-03  -1.31735e-03
  -1.29064e-03  -1.61988e-03  -1.68673e-03  -1.56449e-03  -1.16644e-03  -1.29204e-03
  -1.21635e-03  -1.09652e-03  -1.22493e-03  -1.36412e-03  -1.12542e-03  -1.36549e-03
  -1.22310e-03  -1.09613e-03  -1.21596e-03  -1.29020e-03  -1.16781e-03  -1.14676e-03
  -1.12065e-03  -1.16743e-03  -9.39107e-04  -8.46095e-04  -1.09244e-03  -1.00113e-03
  -7.92049e-04  -7.89072e-04  -9.99649e-04  -1.09419e-03  -8.45427e-04  -9.40860e-04
  -1.16595e-03  -1.11767e-03  -1.19875e-03  -7.40881e-04  -9.92396e-04  -1.17597e-03
  -7.84078e-04  -8.14507e-04  -9.96465e-04  -9.74848e-04  -8.52388e-04  -9.61022e-04
  -8.41087e-04  -9.55502e-04  -1.25499e-03  -6.45939e-04  -1.00328e-03  -1.00328e-03
  -1.31593e-03  -5.40998e-04  -9.59548e-04  -7.08018e-04  -6.96995e-04  -9.69498e-04
  -9.69493e-04  -7.70983e-04  -6.30597e-04  -9.92696e-04  -6.72298e-04  -1.22695e-03
  -6.02251e-04  -7.44065e-04  -6.02395e-04  -1.45865e-03  -2.68850e-04  -1.02580e-03
  -8.26559e-04  -9.96344e-04  -7.07021e-04  -9.96200e-04  -7.13483e-04  -8.80730e-04
  -6.43494e-04  -1.16211e-03  -1.12231e-03  -8.92373e-04  -8.92127e-04  -1.12134e-03
  -6.32633e-04  -7.82887e-04  -6.63570e-04  -7.67335e-04  -7.35953e-04  -7.36199e-04
  -7.68311e-04  -7.34985e-04  -5.89483e-04  -9.37130e-04  -9.19213e-04  -9.62316e-04
  -1.20771e-03  -9.62307e-04  -9.18453e-04  -1.25993e-03  -6.91443e-04  -9.16256e-04
  -8.21264e-04  -1.36280e-03  -8.21274e-04  -9.17017e-04  -8.99378e-04  -9.08002e-04
  -8.96212e-04  -1.24272e-03  -9.60284e-04  -9.59693e-04  -1.24143e-03  -8.97581e-04
  -8.14770e-04  -1.00566e-03  -8.71528e-04  -8.97015e-04  -8.97604e-04  -8.72820e-04
  -1.00429e-03  -9.10199e-04  -1.18394e-03  -1.28150e-03  -1.19236e-03  -1.12927e-03
  -1.19389e-03  -1.27988e-03  -1.18096e-03  -1.07917e-03  -1.17647e-03  -1.39680e-03
  -1.03270e-03  -1.39528e-03  -1.17810e-03  -1.08215e-03  -4.52320e-03  -4.60088e-03
  -4.32556e-03  -4.30862e-03  -4.39726e-03  -4.35772e-03  -4.58292e-03  -4.52320e-03
  -4.45754e-03  -4.39869e-03  -4.20187e-03  -4.19908e-03  -4.45128e-03  -4.51663e-03
  -6.08067e-03  -6.34901e-03  -6.24731e-03  -6.52415e-03  -6.59136e-03  -6.41952e-03
  -6.30888e-03  -6.34889e-03  -6.08055e-03  -6.34737e-03  -6.36317e-03  -6.11318e-03
  -6.36413e-03  -6.35122e-03  -7.48844e-03  -7.13093e-03  -7.53463e-03  -7.12972e-03
  -7.55709e-03  -7.33328e-03  -7.26187e-03  -7.53468e-03  -7.13121e-03  -7.48849e-03
  -6.89329e-03  -6.99822e-03  -6.88522e-03  -7.14035e-03  -6.48497e-03  -6.74659e-03
  -6.77080e-03  -7.32286e-03  -7.23650e-03  -7.17018e-03  -7.21025e-03  -7.32460e-03
  -6.77151e-03  -6.74730e-03  -6.48672e-03  -6.62674e-03  -6.88835e-03  -6.50606e-03
  -4.92186e-03  -5.31590e-03  -5.38275e-03  -5.52552e-03  -5.65825e-03  -5.51384e-03
  -5.60556e-03  -5.66100e-03  -5.52719e-03  -5.38265e-03  -5.31757e-03  -4.92462e-03
  -4.81243e-03  -4.91105e-03  -2.88500e-03  -2.78336e-03  -2.96775e-03  -3.22497e-03
  -3.40518e-03  -3.30681e-03  -3.60265e-03  -3.30898e-03  -3.40774e-03  -3.22679e-03
  -2.96958e-03  -2.78593e-03  -2.88718e-03  -2.70249e-03  -1.31960e-04  -1.92172e-04
  -3.91646e-04  -6.19702e-04  -7.65578e-04  -8.24487e-04  -1.18694e-03  -1.19481e-03
  -8.27712e-04  -7.64945e-04  -6.21495e-04  -3.91014e-04  -1.95398e-04  -1.39829e-04
   1.41319e-03   1.39492e-03   1.30017e-03   1.12959e-03   8.71909e-04   7.49642e-04
   5.90429e-04   8.55298e-04   5.69469e-04   7.03241e-04   1.09356e-03   1.09189e-03
   1.37870e-03   1.40147e-03   3.45307e-03   3.45320e-03   3.41078e-03   2.87838e-03
   2.96251e-03   2.60308e-03   2.55418e-03   2.64896e-03   2.64883e-03   2.58569e-03
   2.71653e-03   2.89967e-03   3.07774e-03   3.43763e-03   3.76224e-03   4.27541e-03
   3.76220e-03   4.34683e-03   3.59987e-03   3.83226e-03   3.65044e-03   3.61121e-03
   3.24126e-03   3.61126e-03   3.72678e-03   3.77365e-03   3.69907e-03   4.40081e-03
   3.91915e-03   3.76589e-03   3.76564e-03   3.91740e-03   3.36822e-03   3.37293e-03
   3.30792e-03   3.24485e-03   3.16391e-03   3.16416e-03   3.24659e-03   3.37148e-03
   3.27491e-03   3.66326e-03   2.04056e-03   2.24801e-03   2.13777e-03   2.24677e-03
   2.03781e-03   2.04178e-03   1.90424e-03   1.69672e-03   1.69875e-03   2.17860e-03
   1.69999e-03   1.69947e-03   2.12668e-03   1.93341e-03  -3.34135e-04  -1.01875e-04
  -2.23471e-04  -2.24937e-04  -1.05186e-04  -3.36314e-04  -3.43361e-04  -4.03521e-04
  -3.04656e-04  -5.80342e-04  -5.78876e-04  -3.01345e-04  -4.01342e-04  -3.51034e-04
  -2.76749e-03  -2.79550e-03  -2.94676e-03  -2.80018e-03  -2.94883e-03  -2.80006e-03
  -2.77536e-03  -2.85979e-03  -2.84437e-03  -2.72961e-03  -3.05770e-03  -2.72754e-03
  -2.83981e-03  -2.85192e-03  -6.77073e-03  -6.60156e-03  -6.62547e-03  -6.77751e-03
  -6.72920e-03  -6.64373e-03  -6.55422e-03  -6.77073e-03  -6.72441e-03  -6.90908e-03
  -7.08056e-03  -6.96908e-03  -6.84391e-03  -6.80880e-03  -1.03538e-02  -1.02749e-02
  -1.02837e-02  -1.03352e-02  -1.04732e-02  -1.03455e-02  -1.02201e-02  -1.02747e-02
  -1.03536e-02  -1.01837e-02  -1.02344e-02  -1.01225e-02  -1.01539e-02  -1.03317e-02
  -1.14318e-02  -1.19378e-02  -1.17713e-02  -1.24790e-02  -1.22327e-02  -1.22889e-02
  -1.23426e-02  -1.17719e-02  -1.19382e-02  -1.14324e-02  -1.17750e-02  -1.15969e-02
  -1.16955e-02  -1.16567e-02  -1.08842e-02  -1.10044e-02  -1.14328e-02  -1.16139e-02
  -1.21074e-02  -1.20520e-02  -1.19484e-02  -1.16163e-02  -1.14347e-02  -1.10063e-02
  -1.08865e-02  -1.06341e-02  -1.06182e-02  -1.08033e-02  -7.67083e-03  -7.95086e-03
  -8.45497e-03  -8.94143e-03  -9.11348e-03  -9.31050e-03  -9.29016e-03  -9.11908e-03
  -8.94567e-03  -8.45858e-03  -7.95511e-03  -7.67643e-03  -7.70473e-03  -7.67497e-03
  -3.26821e-03  -3.72587e-03  -3.83832e-03  -4.60739e-03  -4.78581e-03  -4.94687e-03
  -5.31121e-03  -4.95548e-03  -4.79327e-03  -4.61102e-03  -3.84194e-03  -3.73333e-03
  -3.27682e-03  -3.38963e-03   1.57620e-03   1.50638e-03   9.48005e-04   5.37998e-04
   2.42934e-04  -3.80196e-04  -2.53711e-04  -2.69161e-04  -3.88816e-04   2.38310e-04
   5.34357e-04   9.43384e-04   1.49776e-03   1.56075e-03   4.82431e-03   4.42188e-03
   4.41180e-03   3.91683e-03   3.29204e-03   2.92537e-03   2.64538e-03   2.48429e-03
   2.68968e-03   3.14426e-03   3.40135e-03   4.07005e-03   4.57489e-03   4.45553e-03
   8.10635e-03   8.10657e-03   8.05831e-03   7.67690e-03   7.03189e-03   6.73569e-03
   6.36149e-03   6.20934e-03   6.20912e-03   6.55986e-03   6.70949e-03   7.34779e-03
   7.73035e-03   8.20817e-03   9.99571e-03   9.49790e-03   9.99512e-03   9.32545e-03
   8.97868e-03   8.47698e-03   8.01663e-03   8.08809e-03   8.11554e-03   8.08868e-03
   8.14143e-03   8.55915e-03   9.25457e-03   9.40739e-03   8.76306e-03   8.85982e-03
   8.85876e-03   8.76075e-03   8.57459e-03   8.02422e-03   7.69655e-03   7.49462e-03
   7.37467e-03   7.37574e-03   7.49693e-03   7.77318e-03   8.27013e-03   8.54913e-03
   5.96810e-03   6.00952e-03   6.17410e-03   6.00551e-03   5.96251e-03   5.60511e-03
   5.04424e-03   5.21618e-03   4.84502e-03   4.77075e-03   4.84904e-03   5.22178e-03
   5.13404e-03   5.73693e-03   1.24589e-03   1.53316e-03   1.44356e-03   1.43955e-03
   1.52566e-03   1.23728e-03   9.66706e-04   9.90081e-04   4.94394e-04   7.87306e-04
   7.91323e-04   5.01894e-04   9.98686e-04   1.17236e-03  -3.59892e-03  -3.74322e-03
  -3.34602e-03  -3.55290e-03  -3.35186e-03  -3.75617e-03  -3.61436e-03  -4.02145e-03
  -3.74401e-03  -3.78230e-03  -4.07593e-03  -3.77645e-03  -3.73106e-03  -4.00600e-03
  -7.70320e-03  -7.60284e-03  -7.85655e-03  -7.52593e-03  -7.70249e-03  -7.68011e-03
  -7.78252e-03  -7.70321e-03  -8.09769e-03  -8.31063e-03  -8.37882e-03  -8.48731e-03
  -8.24064e-03  -7.82991e-03  -1.25741e-02  -1.28183e-02  -1.29678e-02  -1.29659e-02
  -1.29248e-02  -1.30443e-02  -1.28641e-02  -1.28178e-02  -1.25736e-02  -1.26754e-02
  -1.28991e-02  -1.30707e-02  -1.27523e-02  -1.26748e-02  -1.47248e-02  -1.49450e-02
  -1.52984e-02  -1.54196e-02  -1.56983e-02  -1.55920e-02  -1.53922e-02  -1.52994e-02
  -1.49461e-02  -1.47258e-02  -1.44546e-02  -1.45159e-02  -1.44927e-02  -1.45055e-02
  -1.35782e-02  -1.38795e-02  -1.42064e-02  -1.45815e-02  -1.50287e-02  -1.52058e-02
  -1.48535e-02  -1.45853e-02  -1.42105e-02  -1.38835e-02  -1.35820e-02  -1.32575e-02
  -1.33170e-02  -1.33381e-02  -9.52685e-03  -9.61144e-03  -1.01181e-02  -1.08603e-02
  -1.14400e-02  -1.19348e-02  -1.18586e-02  -1.14495e-02  -1.08680e-02  -1.01259e-02
  -9.61915e-03  -9.53636e-03  -8.97554e-03  -9.17127e-03  -2.87830e-03  -3.04887e-03
  -3.83758e-03  -4.51094e-03  -5.44142e-03  -6.16007e-03  -5.86834e-03  -6.17889e-03
  -5.45447e-03  -4.52168e-03  -3.84832e-03  -3.06192e-03  -2.89712e-03  -2.63045e-03
   4.33782e-03   4.06348e-03   3.57873e-03   2.82700e-03   1.78142e-03   1.15828e-03
   6.20050e-04   5.93569e-04   1.13706e-03   1.76696e-03   2.81771e-03   3.56427e-03
   4.04226e-03   4.31134e-03   8.65840e-03   8.59845e-03   7.93460e-03   7.11534e-03
   6.41003e-03   5.50576e-03   5.09171e-03   4.77537e-03   5.28135e-03   5.71731e-03
   6.65878e-03   7.45262e-03   8.09309e-03   8.71744e-03   1.35465e-02   1.35470e-02
   1.30164e-02   1.27347e-02   1.19104e-02   1.07525e-02   1.00759e-02   9.72514e-03
   9.72466e-03   1.01714e-02   1.12456e-02   1.20993e-02   1.29794e-02   1.30830e-02
   1.54540e-02   1.62111e-02   1.54530e-02   1.51842e-02   1.44771e-02   1.34923e-02
   1.28234e-02   1.22964e-02   1.20730e-02   1.22974e-02   1.29273e-02   1.39350e-02
   1.47100e-02   1.52413e-02   1.41879e-02   1.47186e-02   1.47169e-02   1.41841e-02
   1.40188e-02   1.33548e-02   1.22685e-02   1.18600e-02   1.13404e-02   1.13421e-02
   1.18639e-02   1.26484e-02   1.35535e-02   1.42182e-02   1.00663e-02   1.03895e-02
   1.05803e-02   1.03833e-02   1.00568e-02   9.35703e-03   8.97331e-03   8.24888e-03
   7.99911e-03   7.52364e-03   8.00535e-03   8.25840e-03   9.15276e-03   9.66540e-03
   3.85553e-03   4.04975e-03   4.32532e-03   4.32029e-03   4.03510e-03   3.83672e-03
   3.36360e-03   2.91101e-03   2.55589e-03   2.05821e-03   2.06324e-03   2.57055e-03
   2.92983e-03   3.57162e-03  -3.37101e-03  -2.97975e-03  -3.09273e-03  -2.89909e-03
  -3.10855e-03  -3.00501e-03  -3.39749e-03  -3.51310e-03  -4.13889e-03  -4.60096e-03
  -4.23939e-03  -4.58514e-03  -4.11363e-03  -3.48662e-03  -7.40245e-03  -7.05655e-03
  -6.45783e-03  -6.69087e-03  -6.36526e-03  -6.80139e-03  -7.07737e-03  -7.40245e-03
  -8.17370e-03  -8.72380e-03  -9.23687e-03  -9.10025e-03  -8.54960e-03  -7.92537e-03
  -1.34954e-02  -1.32192e-02  -1.34005e-02  -1.34547e-02  -1.36403e-02  -1.33101e-02
  -1.34385e-02  -1.32184e-02  -1.34946e-02  -1.38971e-02  -1.39869e-02  -1.40201e-02
  -1.41594e-02  -1.35283e-02  -1.61890e-02  -1.59858e-02  -1.66722e-02  -1.67062e-02
  -1.71642e-02  -1.71783e-02  -1.65673e-02  -1.66741e-02  -1.59877e-02  -1.61909e-02
  -1.60184e-02  -1.60671e-02  -1.60667e-02  -1.60249e-02  -1.40763e-02  -1.46188e-02
  -1.53299e-02  -1.62780e-02  -1.66070e-02  -1.67394e-02  -1.66659e-02  -1.62866e-02
  -1.53378e-02  -1.46266e-02  -1.40849e-02  -1.40830e-02  -1.39368e-02  -1.39454e-02
  -8.58825e-03  -9.47698e-03  -1.03531e-02  -1.13064e-02  -1.25392e-02  -1.29040e-02
  -1.27705e-02  -1.25575e-02  -1.13231e-02  -1.03679e-02  -9.49368e-03  -8.60658e-03
  -8.73481e-03  -8.46263e-03  -6.34016e-04  -1.36478e-03  -2.48865e-03  -3.51963e-03
  -5.04771e-03  -6.20226e-03  -6.64038e-03  -6.23585e-03  -5.07442e-03  -3.54322e-03
  -2.51223e-03  -1.39149e-03  -6.67604e-04  -7.00492e-04   8.02018e-03   7.33772e-03
   6.57478e-03   5.01154e-03   3.36548e-03   2.04626e-03   1.24300e-03   1.19511e-03
   2.00712e-03   3.33597e-03   4.98520e-03   6.54527e-03   7.29858e-03   7.97229e-03
   1.32394e-02   1.30952e-02   1.21491e-02   1.10109e-02   9.19374e-03   7.43997e-03
   6.31526e-03   6.38429e-03   6.46689e-03   7.99014e-03   9.85426e-03   1.14567e-02
   1.24619e-02   1.32259e-02   1.95312e-02   1.95320e-02   1.88491e-02   1.72803e-02
   1.58099e-02   1.43469e-02   1.28791e-02   1.24350e-02   1.24342e-02   1.33249e-02
   1.47435e-02   1.64332e-02   1.77005e-02   1.92215e-02   2.17005e-02   2.16790e-02
   2.16987e-02   2.08385e-02   1.95768e-02   1.80662e-02   1.63553e-02   1.52083e-02
   1.47967e-02   1.52101e-02   1.69846e-02   1.86220e-02   1.98947e-02   2.13620e-02
   2.03548e-02   2.08020e-02   2.07986e-02   2.03463e-02   1.87128e-02   1.74171e-02
   1.61374e-02   1.51695e-02   1.42777e-02   1.42810e-02   1.51781e-02   1.65036e-02
   1.79457e-02   1.92025e-02   1.45191e-02   1.54996e-02   1.55268e-02   1.54877e-02
   1.45007e-02   1.38179e-02   1.22259e-02   1.12892e-02   9.88136e-03   9.75306e-03
   9.89322e-03   1.13075e-02   1.27941e-02   1.41135e-02   6.70570e-03   7.39850e-03
   7.88301e-03   7.87387e-03   7.37196e-03   6.67212e-03   5.62080e-03   4.73361e-03
   3.61258e-03   2.80871e-03   2.81785e-03   3.63913e-03   4.76720e-03   5.91203e-03
  -2.11693e-03  -1.37593e-03  -1.06680e-03  -1.03716e-03  -1.09629e-03  -1.42227e-03
  -2.16482e-03  -2.31683e-03  -3.55944e-03  -4.29942e-03  -4.85267e-03  -4.26994e-03
  -3.51309e-03  -2.26894e-03  -6.17189e-03  -4.51130e-03  -3.95694e-03  -3.62838e-03
  -3.87029e-03  -3.98357e-03  -4.96498e-03  -6.17190e-03  -7.61132e-03  -9.49445e-03
  -1.04047e-02  -1.02035e-02  -8.86461e-03  -7.18583e-03  -1.28094e-02  -1.15234e-02
  -1.11721e-02  -1.16591e-02  -1.11557e-02  -1.14844e-02  -1.13244e-02  -1.15221e-02
  -1.28080e-02  -1.37553e-02  -1.44212e-02  -1.52598e-02  -1.42525e-02  -1.32917e-02
  -1.46108e-02  -1.47138e-02  -1.49184e-02  -1.61310e-02  -1.62128e-02  -1.63688e-02
  -1.57490e-02  -1.49217e-02  -1.47174e-02  -1.46140e-02  -1.55238e-02  -1.57629e-02
  -1.56562e-02  -1.52499e-02  -1.25635e-02  -1.30001e-02  -1.44577e-02  -1.57396e-02
  -1.66499e-02  -1.74813e-02  -1.64593e-02  -1.57550e-02  -1.44728e-02  -1.30152e-02
  -1.25788e-02  -1.27658e-02  -1.21059e-02  -1.27317e-02  -6.00633e-03  -6.83839e-03
  -8.74758e-03  -1.07006e-02  -1.27634e-02  -1.39880e-02  -1.35894e-02  -1.27993e-02
  -1.07327e-02  -8.78032e-03  -6.87054e-03  -6.04228e-03  -5.72998e-03  -6.04692e-03
   2.77868e-03   1.71950e-03  -1.60609e-04  -2.72762e-03  -5.17866e-03  -7.07617e-03
  -7.38004e-03  -7.13826e-03  -5.23457e-03  -2.77686e-03  -2.09847e-04   1.66359e-03
   2.71659e-03   2.93243e-03   1.23525e-02   1.18500e-02   9.86478e-03   7.32360e-03
   4.41533e-03   1.61197e-03   2.33797e-04   1.40565e-04   1.53032e-03   4.34918e-03
   7.26652e-03   9.79863e-03   1.17684e-02   1.22592e-02   1.85588e-02   1.78996e-02
   1.61671e-02   1.35369e-02   1.03822e-02   7.67551e-03   5.80269e-03   4.91220e-03
   6.35176e-03   8.61492e-03   1.12963e-02   1.44699e-02   1.70039e-02   1.81065e-02
   2.45135e-02   2.45149e-02   2.39075e-02   2.16867e-02   1.85127e-02   1.53623e-02
   1.26472e-02   1.15547e-02   1.15534e-02   1.32728e-02   1.64545e-02   1.95944e-02
   2.26226e-02   2.40586e-02   2.76690e-02   2.79341e-02   2.76657e-02   2.54925e-02
   2.26700e-02   1.96057e-02   1.66964e-02   1.57928e-02   1.46477e-02   1.57960e-02
   1.75112e-02   2.04790e-02   2.39461e-02   2.60258e-02   2.51513e-02   2.60980e-02
   2.60915e-02   2.51360e-02   2.32329e-02   2.00429e-02   1.70354e-02   1.50959e-02
   1.36262e-02   1.36327e-02   1.51113e-02   1.81467e-02   2.10952e-02   2.40257e-02
   1.91238e-02   2.02751e-02   2.10949e-02   2.02516e-02   1.90879e-02   1.64074e-02
   1.34929e-02   1.18042e-02   9.62322e-03   8.30674e-03   9.64671e-03   1.18401e-02
   1.44002e-02   1.73487e-02   9.83738e-03   1.15517e-02   1.22696e-02   1.22487e-02
   1.14984e-02   9.77529e-03   7.36235e-03   5.75863e-03   3.13524e-03   1.74443e-03
   1.76528e-03   3.18852e-03   5.82073e-03   8.40643e-03  -1.20170e-04   1.51799e-03
   2.42412e-03   2.53279e-03   2.36868e-03   1.42435e-03  -2.13407e-04  -1.57931e-03
  -3.57061e-03  -5.40401e-03  -5.74836e-03  -5.34858e-03  -3.47697e-03  -1.48608e-03
  -2.97654e-03  -4.09093e-04   8.20835e-04   1.50396e-03   1.25668e-03   6.50755e-04
  -1.28958e-03  -2.97654e-03  -7.98694e-03  -1.17969e-02  -1.41542e-02  -1.38366e-02
  -1.05781e-02  -6.12994e-03  -9.14477e-03  -7.23181e-03  -6.91474e-03  -6.66877e-03
  -7.27078e-03  -6.57618e-03  -7.10139e-03  -7.22923e-03  -9.14219e-03  -1.22945e-02
  -1.53719e-02  -1.58773e-02  -1.45318e-02  -1.11891e-02  -1.09745e-02  -1.02277e-02
  -1.07935e-02  -1.16249e-02  -1.31963e-02  -1.26131e-02  -1.14444e-02  -1.07993e-02
  -1.02341e-02  -1.09804e-02  -1.23784e-02  -1.37326e-02  -1.33451e-02  -1.18400e-02
  -8.20031e-03  -8.25662e-03  -1.00956e-02  -1.28094e-02  -1.57800e-02  -1.64094e-02
  -1.50197e-02  -1.28355e-02  -1.01238e-02  -8.28484e-03  -8.22641e-03  -8.14920e-03
  -9.17960e-03  -7.85198e-03  -1.46974e-03  -2.80557e-03  -4.96487e-03  -9.51141e-03
  -1.34583e-02  -1.56562e-02  -1.54012e-02  -1.35246e-02  -9.57402e-03  -5.02536e-03
  -2.86818e-03  -1.53611e-03  -9.33292e-04  -1.05543e-03   7.80577e-03   6.60411e-03
   3.25661e-03  -1.54888e-03  -6.92556e-03  -1.09317e-02  -1.20135e-02  -1.10538e-02
  -7.03749e-03  -1.64906e-03   3.15643e-03   6.49218e-03   7.68375e-03   8.16150e-03
   1.73856e-02   1.59889e-02   1.31596e-02   8.11681e-03   2.65558e-03  -2.49793e-03
  -5.35848e-03  -5.53573e-03  -2.66399e-03   2.51452e-03   7.98406e-03   1.30185e-02
   1.58228e-02   1.72084e-02   2.28467e-02   2.17020e-02   1.94879e-02   1.51326e-02
   9.17477e-03   3.23142e-03  -3.52978e-04  -1.18244e-03   3.92225e-04   5.21353e-03
   1.11243e-02   1.67870e-02   2.05344e-02   2.20855e-02   2.89611e-02   2.89636e-02
   2.67357e-02   2.27525e-02   1.77362e-02   1.14798e-02   6.93999e-03   5.07068e-03
   5.06811e-03   8.40688e-03   1.32563e-02   1.97152e-02   2.41519e-02   2.75944e-02
   3.04041e-02   3.15439e-02   3.03982e-02   2.82164e-02   2.31938e-02   1.73193e-02
   1.19769e-02   8.58498e-03   7.48052e-03   8.59081e-03   1.33612e-02   1.95948e-02
   2.50427e-02   2.89083e-02   2.78883e-02   3.01234e-02   3.01121e-02   2.78622e-02
   2.42315e-02   1.91868e-02   1.29200e-02   9.98278e-03   6.41251e-03   6.42381e-03
   1.00089e-02   1.47567e-02   2.10423e-02   2.57137e-02   2.15296e-02   2.41573e-02
   2.53213e-02   2.41131e-02   2.14632e-02   1.73125e-02   1.12860e-02   7.54470e-03
   3.00232e-03   1.67431e-03   3.04651e-03   7.61108e-03   1.34425e-02   1.88636e-02
   1.24962e-02   1.55392e-02   1.69105e-02   1.68699e-02   1.54333e-02   1.23742e-02
   7.28760e-03   3.86101e-03  -1.48064e-03  -4.59776e-03  -4.55709e-03  -1.37476e-03
   3.98303e-03   9.27891e-03   2.59652e-03   6.06608e-03   7.35967e-03   7.91393e-03
   7.24826e-03   5.88453e-03   2.41926e-03  -4.66233e-04  -5.83834e-03  -9.71210e-03
  -1.13604e-02  -9.60069e-03  -5.65679e-03  -2.88982e-04   1.49090e-04   6.55653e-03
   9.12515e-03   9.25198e-03   9.78571e-03   8.27125e-03   4.81074e-03   1.49097e-04
  -8.61709e-03  -1.83870e-02  -2.41446e-02  -2.29706e-02  -1.53254e-02  -5.27143e-03
  -3.52569e-03   1.01345e-03   2.42839e-03   1.25389e-03   9.58286e-04   1.43199e-03
   2.59042e-03   1.01762e-03  -3.52152e-03  -1.11492e-02  -1.70222e-02  -1.92529e-02
  -1.53051e-02  -8.41432e-03  -3.68995e-03  -8.08852e-04  -1.95816e-03  -5.41458e-03
  -7.35172e-03  -7.28582e-03  -4.05429e-03  -1.96737e-03  -8.19650e-04  -3.69916e-03
  -8.23417e-03  -1.09202e-02  -1.05248e-02  -6.56030e-03   5.43535e-04   6.57915e-04
  -2.26121e-03  -8.54823e-03  -1.37557e-02  -1.54705e-02  -1.23383e-02  -8.59510e-03
  -2.30866e-03   6.10470e-04   4.96657e-04  -1.90181e-03  -1.90043e-03  -1.32925e-03
   6.94810e-03   5.84546e-03   2.86789e-04  -7.24251e-03  -1.59433e-02  -2.13006e-02
  -2.00322e-02  -1.60652e-02  -7.35704e-03   1.76779e-04   5.73093e-03   6.82620e-03
   6.53602e-03   7.02635e-03   1.48160e-02   1.20010e-02   7.09918e-03  -1.36583e-03
  -1.21852e-02  -2.12817e-02  -2.32571e-02  -2.15180e-02  -1.23988e-02  -1.56311e-03
   6.90190e-03   1.17874e-02   1.45797e-02   1.41702e-02   2.15332e-02   1.96826e-02
   1.49952e-02   6.96227e-03  -4.46651e-03  -1.48009e-02  -2.04021e-02  -2.07310e-02
  -1.51148e-02  -4.75758e-03   6.69499e-03   1.47042e-02   1.93688e-02   2.12043e-02
   2.55297e-02   2.44103e-02   1.98371e-02   1.25788e-02   2.29076e-03  -8.65183e-03
  -1.56432e-02  -1.77117e-02  -1.38369e-02  -5.25022e-03   5.88311e-03   1.54128e-02
   2.16141e-02   2.50173e-02   2.89284e-02   2.89326e-02   2.62645e-02   2.06421e-02
   1.15167e-02   1.54659e-03  -7.64094e-03  -1.11840e-02  -1.11881e-02  -5.21772e-03
   5.00004e-03   1.47733e-02   2.27473e-02   2.75593e-02   2.99140e-02   3.08351e-02
   2.99048e-02   2.48132e-02   1.74270e-02   8.77121e-03  -1.28589e-03  -6.00811e-03
  -9.26391e-03  -5.99890e-03   1.66735e-03   1.19800e-02   2.00348e-02   2.66884e-02
   2.70104e-02   2.97770e-02   2.97581e-02   2.69635e-02   2.10496e-02   1.23098e-02
   2.26034e-03  -4.30967e-03  -1.01628e-02  -1.01440e-02  -4.26278e-03   5.81346e-03
   1.54130e-02   2.33082e-02   2.07301e-02   2.55397e-02   2.65433e-02   2.54573e-02
   2.06082e-02   1.31972e-02   3.14980e-03  -4.06994e-03  -1.27562e-02  -1.64772e-02
  -1.26738e-02  -3.94803e-03   6.65986e-03   1.62910e-02   1.32006e-02   1.86985e-02
   2.11900e-02   2.11141e-02   1.85010e-02   1.29643e-02   4.04235e-03  -3.70039e-03
  -1.47739e-02  -2.13782e-02  -2.13024e-02  -1.45764e-02  -3.46409e-03   7.74816e-03
   4.96287e-03   1.07820e-02   1.40842e-02   1.39285e-02   1.38678e-02   1.04406e-02
   4.63397e-03  -9.79607e-04  -1.20215e-02  -2.18815e-02  -2.48927e-02  -2.16651e-02
  -1.16801e-02  -6.50716e-04   5.14595e-03   1.72497e-02   2.07363e-02   2.11225e-02
   2.06287e-02   2.03945e-02   1.43057e-02   5.14596e-03  -1.52653e-02  -3.63211e-02
  -4.88150e-02  -4.59562e-02  -2.97406e-02  -8.00841e-03   5.10811e-03   1.65033e-02
   1.76722e-02   1.48850e-02   1.35724e-02   1.60237e-02   1.77047e-02   1.65090e-02
   5.11379e-03  -1.15903e-02  -2.68761e-02  -3.13194e-02  -2.26923e-02  -5.46926e-03
   9.30914e-03   1.65576e-02   1.39607e-02   5.88558e-03  -6.82237e-04   8.09422e-04
   8.61413e-03   1.39488e-02   1.65426e-02   9.29722e-03  -2.34526e-03  -1.04435e-02
  -8.54589e-03   1.64109e-03   1.48896e-02   1.76687e-02   1.06661e-02  -2.45400e-03
  -1.53361e-02  -1.92920e-02  -1.18416e-02  -2.52661e-03   1.05965e-02   1.75991e-02
   1.48170e-02   9.36961e-03   7.17180e-03   1.13330e-02   1.99191e-02   1.91254e-02
   1.08015e-02  -6.53753e-03  -2.58311e-02  -3.73031e-02  -3.47864e-02  -2.60558e-02
  -6.73300e-03   1.06176e-02   1.89299e-02   1.96944e-02   1.82024e-02   1.83486e-02
   2.27456e-02   2.12520e-02   1.17614e-02  -5.66415e-03  -2.74141e-02  -4.49529e-02
  -5.04081e-02  -4.53904e-02  -2.78185e-02  -6.03323e-03   1.13923e-02   2.08476e-02
   2.23082e-02   2.35759e-02   2.42906e-02   2.21390e-02   1.46910e-02   4.23004e-04
  -1.92303e-02  -3.95168e-02  -5.15322e-02  -5.21404e-02  -4.01268e-02  -1.97937e-02
  -1.32038e-04   1.41276e-02   2.15290e-02   2.36824e-02   2.42550e-02   2.27270e-02
   1.71665e-02   5.19303e-03  -1.22816e-02  -3.12926e-02  -4.54539e-02  -4.84429e-02
  -4.20082e-02  -2.52031e-02  -5.91675e-03   9.73117e-03   1.97202e-02   2.33386e-02
   2.34544e-02   2.34601e-02   2.00583e-02   1.14176e-02  -1.41656e-03  -1.68525e-02
  -3.07844e-02  -3.64052e-02  -3.64108e-02  -2.69072e-02  -1.16838e-02   3.26608e-03
   1.48840e-02   2.11546e-02   2.16738e-02   2.39379e-02   2.16619e-02   1.64772e-02
   6.61687e-03  -7.41858e-03  -2.00015e-02  -2.72269e-02  -3.17299e-02  -2.72150e-02
  -1.58345e-02  -2.93352e-03   1.04152e-02   1.87753e-02   1.95643e-02   2.31713e-02
   2.31408e-02   1.94917e-02   1.08534e-02  -1.98418e-03  -1.62550e-02  -2.56742e-02
  -3.45443e-02  -3.45139e-02  -2.56016e-02  -1.15121e-02   2.88384e-03   1.42713e-02
   1.59680e-02   2.18719e-02   2.40540e-02   2.17248e-02   1.57433e-02   3.34337e-03
  -1.36943e-02  -2.61769e-02  -4.18410e-02  -4.78726e-02  -4.16939e-02  -2.59522e-02
  -7.22934e-03   8.21309e-03   1.05620e-02   2.03792e-02   2.35704e-02   2.34217e-02
   1.99972e-02   1.01246e-02  -6.13800e-03  -1.98359e-02  -4.12584e-02  -5.57698e-02
  -5.56211e-02  -4.08764e-02  -1.93985e-02   5.75219e-04   6.32035e-03   1.87934e-02
   2.20986e-02   2.38267e-02   2.17027e-02   1.81504e-02   5.71215e-03  -6.38553e-03
  -2.90939e-02  -4.87508e-02  -5.68028e-02  -4.83549e-02  -2.84508e-02  -5.77733e-03
   1.13439e-02   3.49574e-02   4.05627e-02   3.78814e-02   3.85872e-02   4.00327e-02
   2.96293e-02   1.13439e-02  -3.32129e-02  -8.10755e-02  -1.08876e-01  -1.02856e-01
  -6.60302e-02  -1.69252e-02   2.12337e-02   4.41471e-02   4.45789e-02   3.39243e-02
   3.00882e-02   3.73711e-02   4.61276e-02   4.41519e-02   2.12385e-02  -1.98089e-02
  -5.55652e-02  -6.61076e-02  -4.55277e-02  -5.25685e-03   3.26579e-02   4.87058e-02
   4.29081e-02   2.17993e-02   6.39234e-03   9.93366e-03   2.89894e-02   4.29007e-02
   4.86951e-02   3.26506e-02   3.50145e-03  -1.59093e-02  -1.13333e-02   1.30748e-02
   4.01078e-02   4.89014e-02   3.64188e-02   3.69087e-03  -2.69927e-02  -3.68347e-02
  -1.83044e-02   3.59819e-03   3.63515e-02   4.88341e-02   4.00151e-02   2.35601e-02
   1.80598e-02   2.85218e-02   4.15043e-02   4.32007e-02   2.73874e-02  -1.11298e-02
  -5.49392e-02  -8.05345e-02  -7.51718e-02  -5.53372e-02  -1.14284e-02   2.71316e-02
   4.29020e-02   4.11063e-02   3.46222e-02   3.60012e-02   3.51342e-02   3.33185e-02
   1.94872e-02  -1.56884e-02  -6.24352e-02  -1.00872e-01  -1.13000e-01  -1.01732e-01
  -6.31847e-02  -1.63559e-02   1.88197e-02   3.25690e-02   3.42739e-02   3.27647e-02
   2.42602e-02   2.24013e-02   1.33151e-02  -1.16670e-02  -4.89141e-02  -8.70972e-02
  -1.10006e-01  -1.11110e-01  -8.82522e-02  -5.00464e-02  -1.27762e-02   1.21828e-02
   2.12463e-02   2.31567e-02   1.67685e-02   1.59343e-02   9.26132e-03  -7.56113e-03
  -3.52012e-02  -6.59164e-02  -8.93931e-02  -9.42769e-02  -8.36104e-02  -5.59871e-02
  -2.52631e-02  -2.60019e-04   1.17982e-02   1.65875e-02   8.46797e-03   8.47275e-03
   5.52484e-03  -2.27962e-03  -1.66729e-02  -3.48073e-02  -4.89925e-02  -5.54361e-02
  -5.54408e-02  -4.48724e-02  -2.90210e-02  -1.13175e-02   9.19249e-04   6.90662e-03
   4.47128e-03   5.09152e-03   4.46395e-03  -5.46853e-05  -7.95161e-03  -1.91440e-02
  -2.90625e-02  -3.29929e-02  -3.49023e-02  -3.29856e-02  -2.62930e-02  -1.54020e-02
  -4.84944e-03   1.65913e-03   3.56840e-03   6.79219e-03   6.75684e-03   3.47573e-03
  -4.31553e-03  -1.70842e-02  -3.21000e-02  -3.98992e-02  -4.71893e-02  -4.71539e-02
  -3.98065e-02  -2.71867e-02  -1.21177e-02  -1.13841e-03   4.32661e-03   1.17618e-02
   1.30182e-02   1.15081e-02   3.92861e-03  -1.23903e-02  -3.70897e-02  -5.49158e-02
  -7.80753e-02  -8.71001e-02  -7.78215e-02  -5.45178e-02  -2.75344e-02  -5.07679e-03
   5.76170e-03   1.91453e-02   2.38869e-02   2.36023e-02   1.84214e-02   4.90135e-03
  -2.54056e-02  -5.11689e-02  -9.17669e-02  -1.18905e-01  -1.18620e-01  -9.10430e-02
  -5.03086e-02  -1.24415e-02   8.21121e-03   2.86378e-02   3.45988e-02   3.32999e-02
   3.38394e-02   2.74478e-02   7.10765e-03  -1.81436e-02  -6.68500e-02  -1.09759e-01
  -1.27844e-01  -1.09000e-01  -6.56600e-02  -1.70401e-02   2.16975e-02   7.02195e-02
   6.96711e-02   5.89100e-02   6.17475e-02   7.25393e-02   6.01443e-02   2.16975e-02
  -7.49421e-02  -1.83369e-01  -2.47711e-01  -2.33930e-01  -1.49166e-01  -3.84739e-02
   4.71668e-02   9.78686e-02   9.16372e-02   6.28224e-02   5.12678e-02   7.13351e-02
   9.89157e-02   9.78599e-02   4.71581e-02  -4.46027e-02  -1.25122e-01  -1.48168e-01
  -1.02138e-01  -1.27599e-02   7.18933e-02   1.14336e-01   9.53127e-02   4.13232e-02
   4.38563e-03   1.22348e-02   6.00337e-02   9.53443e-02   1.14367e-01   7.19249e-02
   2.91626e-03  -4.04864e-02  -3.17396e-02   2.57167e-02   8.46976e-02   1.11087e-01
   8.13961e-02   5.78158e-03  -6.45391e-02  -8.41004e-02  -4.43519e-02   5.73603e-03
   8.14598e-02   1.11151e-01   8.46520e-02   4.26290e-02   2.80630e-02   5.45260e-02
   7.48370e-02   9.02829e-02   5.77810e-02  -2.71270e-02  -1.26088e-01  -1.86338e-01
  -1.73388e-01  -1.26744e-01  -2.74807e-02   5.75572e-02   8.99292e-02   7.41806e-02
   5.55244e-02   6.01215e-02   4.91639e-02   5.50424e-02   3.17781e-02  -3.85080e-02
  -1.40559e-01  -2.28158e-01  -2.53893e-01  -2.29818e-01  -1.41935e-01  -3.96758e-02
   3.06104e-02   5.36666e-02   4.75040e-02   4.37331e-02   1.66781e-02   1.88245e-02
   8.52201e-03  -2.87954e-02  -9.68717e-02  -1.71015e-01  -2.18825e-01  -2.20799e-01
  -1.73213e-01  -9.91237e-02  -3.10579e-02   6.27001e-03   1.66271e-02   1.47041e-02
  -2.64682e-03  -1.54195e-03  -3.51945e-03  -2.21318e-02  -5.77517e-02  -1.01935e-01
  -1.36101e-01  -1.44594e-01  -1.26964e-01  -8.80247e-02  -4.36130e-02  -1.43416e-02