# Created by Wannier.jl 2022-09-01T13:05:27.313
CRYSTAL
PRIMVEC
   2.1304216   -1.2299995    0.0000000
   0.0000000    2.4599989    0.0000000
   0.0000000    0.0000000   10.0000000
CONVVEC
   2.1304216   -1.2299995    0.0000000
   0.0000000    2.4599989    0.0000000
   0.0000000    0.0000000   10.0000000
PRIMCOORD
2 1
6    0.0000000    0.0000000    5.0000000
6    0.7101405    1.2299995    5.0000000

BEGIN_BLOCK_DATAGRID_3D
3D_field
BEGIN_DATAGRID_3D_UNKNOWN
14 14 54
  -2.1304216   -1.2299995  -10.0000000
   3.9564972   -2.2842847    0.0000000
   0.0000000    4.5685694    0.0000000
   0.0000000    0.0000000   19.6296296
  -9.68293e-04  -1.08397e-03  -1.33603e-03  -1.24789e-03  -1.11612e-03  -1.41495e-03
  -1.37499e-03  -1.15418e-03  -1.02046e-03  -9.67619e-04  -8.53381e-04  -8.98456e-04
  -7.76743e-04  -1.27630e-03  -8.46780e-04  -1.08391e-03  -1.30579e-03  -1.41896e-03
  -1.44148e-03  -1.72986e-03  -1.54688e-03  -1.24887e-03  -1.10204e-03  -9.72638e-04
  -7.30785e-04  -7.79458e-04  -7.03826e-04  -7.48948e-04  -9.54499e-04  -1.14858e-03
  -1.33632e-03  -1.41864e-03  -1.25524e-03  -1.23173e-03  -1.52427e-03  -1.44739e-03
  -1.26558e-03  -8.36386e-04  -9.21802e-04  -5.11028e-04  -9.04020e-04  -7.17348e-04
  -8.34450e-04  -1.09955e-03  -1.19680e-03  -1.24665e-03  -1.44095e-03  -1.23198e-03
  -1.61088e-03  -1.59926e-03  -1.09951e-03  -1.09926e-03  -1.08316e-03  -1.07222e-03
  -4.12360e-04  -1.18573e-03  -9.49765e-04  -9.43139e-04  -1.12383e-03  -1.45749e-03
  -1.11577e-03  -1.72975e-03  -1.52409e-03  -1.48942e-03  -1.12871e-03  -1.01396e-03
  -9.94698e-04  -8.40667e-04  -1.22118e-03  -5.87581e-04  -1.24871e-03  -1.10809e-03
  -1.19071e-03  -1.50795e-03  -1.46236e-03  -1.41508e-03  -1.54728e-03  -1.45147e-03
  -1.20378e-03  -6.82586e-04  -1.14398e-03  -7.76637e-04  -7.55332e-04  -1.34048e-03
  -6.39539e-04  -1.15396e-03  -1.35287e-03  -1.45534e-03  -1.42829e-03  -1.61072e-03
  -1.37489e-03  -1.15901e-03  -1.18866e-03  -1.23908e-03  -1.24841e-03  -7.26555e-04
  -8.22524e-04  -1.05032e-03  -1.19067e-03  -1.06011e-03  -1.30420e-03  -1.69299e-03
  -1.42795e-03  -1.18471e-03  -1.47689e-03  -1.15419e-03  -1.10198e-03  -8.36668e-04
  -1.08192e-03  -8.40302e-04  -7.55463e-04  -1.05021e-03  -7.35818e-04  -1.06018e-03
  -1.41090e-03  -1.37968e-03  -1.60259e-03  -1.21471e-03  -1.34409e-03  -1.17346e-03
  -1.02039e-03  -9.72458e-04  -9.21756e-04  -1.07178e-03  -1.22128e-03  -1.34065e-03
  -9.85785e-04  -1.27367e-03  -1.30392e-03  -1.38000e-03  -1.17632e-03  -1.26805e-03
  -1.31113e-03  -1.29983e-03  -1.16202e-03  -9.67902e-04  -7.30740e-04  -5.11140e-04
  -4.12391e-04  -5.87351e-04  -1.16904e-03  -1.03310e-03  -1.32163e-03  -1.69422e-03
  -1.60312e-03  -1.26780e-03  -1.51567e-03  -1.41424e-03  -1.37558e-03  -7.44259e-04
  -8.52146e-04  -7.79018e-04  -9.04052e-04  -1.18565e-03  -7.78144e-04  -8.94936e-04
  -1.16144e-03  -1.34464e-03  -1.42830e-03  -1.21481e-03  -1.31131e-03  -1.36117e-03
  -8.90983e-04  -8.27897e-04  -8.28729e-04  -8.98093e-04  -7.03933e-04  -7.17120e-04
  -8.06855e-04  -1.14887e-03  -1.11052e-03  -1.55217e-03  -1.60427e-03  -1.18458e-03
  -1.34368e-03  -1.27413e-03  -1.37204e-03  -9.46797e-04  -1.31039e-03  -7.15004e-04
  -7.76875e-04  -7.49117e-04  -9.91856e-04  -1.29612e-03  -1.27140e-03  -1.38673e-03
  -1.23506e-03  -1.69823e-03  -1.47700e-03  -1.15083e-03  -1.15774e-03  -7.90485e-04
  -7.14192e-04  -7.75999e-04  -7.24726e-04  -1.27619e-03   8.49329e-04  -1.95564e-03
  -4.10018e-03  -6.26788e-03  -7.62723e-03  -7.18541e-03  -5.83371e-03  -4.49236e-03
  -1.99314e-03   3.37002e-04   2.32982e-03   3.54336e-03   3.36672e-03   2.29174e-03
   5.64634e-04  -1.95663e-03  -4.22543e-03  -6.26527e-03  -7.26246e-03  -6.97381e-03
  -5.76912e-03  -4.56964e-03  -1.96030e-03   5.81310e-04   2.61070e-03   3.69640e-03
   3.46018e-03   2.02446e-03   6.97121e-04  -1.63496e-03  -4.10152e-03  -6.26548e-03
  -7.41014e-03  -7.38414e-03  -5.82358e-03  -4.29591e-03  -1.82259e-03   5.45176e-04
   2.50961e-03   3.57381e-03   3.61429e-03   2.07701e-03   1.08584e-03  -1.52223e-03
  -4.16645e-03  -6.26999e-03  -7.26312e-03  -7.38411e-03  -5.75878e-03  -4.27955e-03
  -2.14109e-03   6.66119e-04   2.77372e-03   3.85957e-03   3.45374e-03   2.55644e-03
   1.08516e-03  -1.39924e-03  -4.05535e-03  -6.04418e-03  -7.62897e-03  -6.97422e-03
  -5.82324e-03  -4.36805e-03  -1.91704e-03   6.59987e-04   2.95999e-03   4.03808e-03
   4.22728e-03   2.45165e-03   1.37226e-03  -1.13121e-03  -3.84826e-03  -5.85437e-03
  -7.04049e-03  -7.18564e-03  -5.76838e-03  -4.32753e-03  -2.01452e-03   6.09136e-04
   2.89091e-03   4.02633e-03   3.77820e-03   2.85199e-03   1.39659e-03  -1.11898e-03
  -3.52104e-03  -5.74227e-03  -7.11806e-03  -6.81086e-03  -5.83305e-03  -4.55206e-03
  -1.91774e-03   7.15181e-04   2.94706e-03   3.76381e-03   4.16078e-03   2.86101e-03
   1.40339e-03  -1.10325e-03  -3.53622e-03  -5.56260e-03  -6.91873e-03  -7.19393e-03
  -5.64296e-03  -4.49237e-03  -1.96129e-03   5.43838e-04   2.77161e-03   4.03636e-03
   3.77798e-03   2.86167e-03   1.38606e-03  -1.10226e-03  -3.36659e-03  -5.61975e-03
  -6.67522e-03  -6.99264e-03  -5.72099e-03  -4.42702e-03  -1.99414e-03   5.79822e-04
   2.50848e-03   3.85861e-03   4.22704e-03   2.85251e-03   1.29232e-03  -9.77717e-04
  -3.53488e-03  -5.61954e-03  -7.13050e-03  -6.86672e-03  -5.75840e-03  -4.36886e-03
  -1.97035e-03   3.35664e-04   2.60957e-03   3.57340e-03   3.45347e-03   2.45180e-03
   1.12185e-03  -1.27887e-03  -3.69749e-03  -5.56049e-03  -6.67456e-03  -6.86674e-03
  -5.46324e-03  -4.17293e-03  -1.96302e-03   4.07452e-04   2.32771e-03   3.69544e-03
   3.61402e-03   2.55668e-03   8.64946e-04  -1.46646e-03  -3.85112e-03  -5.89633e-03
  -6.91700e-03  -6.99223e-03  -5.75873e-03  -4.16969e-03  -2.33240e-03   3.58242e-04
   2.34255e-03   3.54163e-03   3.45994e-03   2.07716e-03   7.41263e-04  -1.53713e-03
  -4.09395e-03  -5.80657e-03  -7.02911e-03  -7.19370e-03  -5.72173e-03  -4.42141e-03
  -1.93973e-03   2.71469e-04   2.67932e-03   3.30434e-03   3.36650e-03   2.02498e-03
   5.81425e-04  -1.67194e-03  -4.24225e-03  -6.15915e-03  -7.32615e-03  -6.91297e-03
  -5.64361e-03  -4.48545e-03  -1.92921e-03   4.50345e-04   2.32093e-03   3.43781e-03
   3.16963e-03   2.29240e-03   2.46723e-03  -1.58636e-03  -6.60629e-03  -1.01045e-02
  -1.19037e-02  -1.14604e-02  -9.24277e-03  -6.72448e-03  -2.37065e-03   2.49509e-03
   6.30643e-03   7.88806e-03   7.66840e-03   5.26430e-03   2.66950e-03  -1.58861e-03
  -6.98741e-03  -1.03467e-02  -1.24780e-02  -1.20646e-02  -9.12988e-03  -6.55633e-03
  -1.94131e-03   2.65638e-03   6.17406e-03   8.19263e-03   7.80913e-03   5.54146e-03
   3.12017e-03  -1.92122e-03  -6.60996e-03  -1.03489e-02  -1.24104e-02  -1.18379e-02
  -9.22348e-03  -6.57962e-03  -2.02700e-03   2.91279e-03   6.85104e-03   8.56773e-03
   8.21494e-03   5.76657e-03   3.37647e-03  -1.31128e-03  -6.16300e-03  -1.01082e-02
  -1.24802e-02  -1.18383e-02  -9.38626e-03  -6.73028e-03  -1.65804e-03   3.10222e-03
   7.11179e-03   9.12069e-03   8.87132e-03   6.19444e-03   4.04522e-03  -9.56532e-04
  -6.03023e-03  -1.00658e-02  -1.19068e-02  -1.20654e-02  -9.22260e-03  -6.68225e-03
  -1.77563e-03   3.14202e-03   7.26886e-03   9.44320e-03   9.03000e-03   6.78069e-03
   4.55171e-03  -6.64135e-04  -5.27509e-03  -9.51967e-03  -1.17872e-02  -1.14615e-02
  -9.12854e-03  -6.59734e-03  -1.61457e-03   2.94036e-03   7.18614e-03   9.34360e-03
   9.64464e-03   7.22225e-03   4.43578e-03   4.16141e-05  -5.11304e-03  -9.02823e-03
  -1.12932e-02  -1.16025e-02  -9.24112e-03  -6.50792e-03  -2.13460e-03   3.15813e-03
   7.30184e-03   9.63436e-03   9.16225e-03   7.22377e-03   4.79122e-03  -1.48738e-06
  -4.90502e-03  -8.87859e-03  -1.13123e-02  -1.13589e-02  -9.31911e-03  -6.72448e-03
  -1.94356e-03   2.90912e-03   7.10806e-03   9.44011e-03   9.64353e-03   7.22541e-03
   4.39326e-03   7.66353e-07  -4.97883e-03  -8.81761e-03  -1.13075e-02  -1.14057e-02
  -9.31289e-03  -6.67862e-03  -2.37290e-03   2.65291e-03   6.84781e-03   9.11833e-03
   9.02923e-03   7.22305e-03   4.38406e-03  -1.26584e-04  -4.90135e-03  -8.81543e-03
  -1.10814e-02  -1.15351e-02  -9.20285e-03  -6.86248e-03  -2.35329e-03   2.49143e-03
   6.17083e-03   8.56581e-03   8.87105e-03   6.78097e-03   3.89149e-03  -6.68647e-04
  -5.24108e-03  -8.87486e-03  -1.13053e-02  -1.15347e-02  -9.13820e-03  -7.03313e-03
  -2.01613e-03   2.05471e-03   6.30269e-03   8.19026e-03   8.21468e-03   6.19461e-03
   3.26636e-03  -1.28474e-03  -5.46913e-03  -9.18948e-03  -1.13092e-02  -1.14049e-02
  -9.20373e-03  -6.92247e-03  -2.28117e-03   2.03610e-03   5.87447e-03   7.88497e-03
   7.80836e-03   5.76685e-03   2.89709e-03  -1.41537e-03  -6.04235e-03  -9.67628e-03
  -1.15577e-02  -1.13577e-02  -9.31424e-03  -6.79819e-03  -2.26235e-03   2.14418e-03
   5.89808e-03   7.94659e-03   7.66729e-03   5.54226e-03   2.61641e-03  -1.75679e-03
  -6.41639e-03  -1.01380e-02  -1.17555e-02  -1.16285e-02  -9.32075e-03  -6.76383e-03
  -2.13496e-03   2.14267e-03   5.99808e-03   7.94389e-03   7.67836e-03   5.26595e-03
   4.74278e-03  -1.74824e-03  -8.07771e-03  -1.27743e-02  -1.51142e-02  -1.47861e-02
  -1.13953e-02  -7.65047e-03  -1.41422e-03   4.96449e-03   9.63136e-03   1.24314e-02
   1.17806e-02   8.23674e-03   5.24201e-03  -1.75301e-03  -7.91951e-03  -1.34061e-02
  -1.54214e-02  -1.49461e-02  -1.14004e-02  -7.55028e-03  -9.24747e-04   5.50702e-03
   1.07472e-02   1.29745e-02   1.24309e-02   8.70607e-03   5.67387e-03  -1.07606e-03
  -8.08434e-03  -1.34087e-02  -1.56231e-02  -1.51100e-02  -1.16058e-02  -7.80183e-03
  -6.49606e-04   6.03654e-03   1.12302e-02   1.40622e-02   1.34318e-02   9.56543e-03
   6.61194e-03  -4.35432e-04  -7.48840e-03  -1.27812e-02  -1.54250e-02  -1.51105e-02
  -1.13232e-02  -7.47182e-03  -5.52830e-04   6.37074e-03   1.17799e-02   1.47449e-02
   1.42779e-02   1.04391e-02   7.40584e-03   7.10702e-04  -6.40903e-03  -1.21806e-02
  -1.51189e-02  -1.49476e-02  -1.16043e-02  -7.64660e-03  -5.20477e-04   6.56512e-03
   1.20223e-02   1.49294e-02   1.48767e-02   1.13841e-02   8.05065e-03   1.40677e-03
  -5.95630e-03  -1.16898e-02  -1.47980e-02  -1.47882e-02  -1.13978e-02  -7.62471e-03
  -6.29382e-04   6.64398e-03   1.22852e-02   1.56698e-02   1.51633e-02   1.17070e-02
   8.67952e-03   1.83409e-03  -5.33039e-03  -1.11933e-02  -1.45104e-02  -1.44781e-02
  -1.13916e-02  -7.72894e-03  -6.78044e-04   6.18927e-03   1.18385e-02   1.53717e-02
   1.57123e-02   1.22242e-02   8.59922e-03   2.02807e-03  -5.32001e-03  -1.11631e-02
  -1.43337e-02  -1.43646e-02  -1.11817e-02  -7.65047e-03  -9.29519e-04   6.02991e-03
   1.17730e-02   1.49247e-02   1.51613e-02   1.22279e-02   8.54297e-03   2.03284e-03
  -4.83592e-03  -1.07003e-02  -1.40219e-02  -1.41373e-02  -1.14871e-02  -8.04277e-03
  -1.41899e-03   5.50168e-03   1.12249e-02   1.47416e-02   1.48755e-02   1.17086e-02
   7.88478e-03   1.66039e-03  -5.31338e-03  -1.06977e-02  -1.41395e-02  -1.42500e-02
  -1.16639e-02  -8.25467e-03  -1.89527e-03   4.95785e-03   1.07419e-02   1.40601e-02
   1.42773e-02   1.13845e-02   7.06809e-03   1.20445e-03  -5.34764e-03  -1.11562e-02
  -1.40183e-02  -1.42495e-02  -1.18999e-02  -8.32405e-03  -2.52290e-03   4.58187e-03
   9.62445e-03   1.29711e-02   1.34312e-02   1.04385e-02   6.36210e-03   3.97879e-04
  -6.18052e-03  -1.13635e-02  -1.43289e-02  -1.41357e-02  -1.16655e-02  -8.43237e-03
  -2.25677e-03   4.14802e-03   9.36531e-03   1.24267e-02   1.24297e-02   9.56585e-03
   5.45530e-03  -6.94991e-04  -6.79255e-03  -1.17488e-02  -1.45966e-02  -1.43626e-02
  -1.14897e-02  -8.18706e-03  -2.32040e-03   4.29342e-03   9.00793e-03   1.19118e-02
   1.17786e-02   8.70771e-03   5.03529e-03  -1.44884e-03  -7.63128e-03  -1.24672e-02
  -1.49399e-02  -1.45917e-02  -1.11854e-02  -7.77661e-03  -1.86451e-03   4.65784e-03
   9.45633e-03   1.19628e-02   1.16197e-02   8.24044e-03   6.34092e-03  -1.51590e-03
  -8.38301e-03  -1.42102e-02  -1.67965e-02  -1.58946e-02  -1.15366e-02  -7.35157e-03
   1.24591e-04   7.07473e-03   1.29533e-02   1.55535e-02   1.47078e-02   1.06263e-02
   6.41637e-03  -1.52369e-03  -8.99827e-03  -1.43977e-02  -1.72385e-02  -1.57852e-02
  -1.17091e-02  -7.00691e-03   5.72490e-04   8.54336e-03   1.42230e-02   1.71993e-02
   1.61517e-02   1.12691e-02   7.92751e-03  -2.66366e-04  -8.39635e-03  -1.44027e-02
  -1.74205e-02  -1.63490e-02  -1.13228e-02  -6.40886e-03   1.54564e-03   9.65466e-03
   1.57383e-02   1.86960e-02   1.76063e-02   1.29006e-02   9.78369e-03   1.04998e-03
  -7.44749e-03  -1.42231e-02  -1.72438e-02  -1.63498e-02  -1.18563e-02  -6.63721e-03
   1.72413e-03   1.02937e-02   1.66927e-02   1.98571e-02   1.91048e-02   1.46719e-02
   1.13877e-02   2.42819e-03  -5.98203e-03  -1.28828e-02  -1.68070e-02  -1.57875e-02
  -1.13206e-02  -6.31055e-03   1.95521e-03   1.06814e-02   1.76927e-02   2.13086e-02
   2.06379e-02   1.58925e-02   1.24019e-02   4.02683e-03  -4.87220e-03  -1.20289e-02
  -1.59667e-02  -1.58983e-02  -1.17042e-02  -6.74589e-03   1.54361e-03   1.06481e-02
   1.77622e-02   2.14003e-02   2.14310e-02   1.72300e-02   1.31770e-02   4.50258e-03
  -3.96215e-03  -1.14581e-02  -1.55847e-02  -1.55244e-02  -1.15308e-02  -7.02364e-03
   1.40155e-03   1.01038e-02   1.75244e-02   2.13670e-02   2.15219e-02   1.76642e-02
   1.31491e-02   5.00926e-03  -3.24918e-03  -1.09369e-02  -1.52368e-02  -1.56827e-02
  -1.19867e-02  -7.35158e-03   5.64690e-04   9.64131e-03   1.66798e-02   2.12981e-02
   2.14273e-02   1.76700e-02   1.30125e-02   5.01706e-03  -3.54902e-03  -1.08295e-02
  -1.51179e-02  -1.59086e-02  -1.22126e-02  -8.11869e-03   1.16791e-04   8.53394e-03
   1.57308e-02   1.98521e-02   2.06365e-02   1.72330e-02   1.20746e-02   4.37680e-03
  -3.23584e-03  -1.08245e-02  -1.50120e-02  -1.57301e-02  -1.27124e-02  -8.66843e-03
  -1.10163e-03   7.06138e-03   1.42155e-02   1.86925e-02   1.91043e-02   1.58921e-02
   1.09393e-02   3.41498e-03  -4.30047e-03  -1.09241e-02  -1.51126e-02  -1.57292e-02
  -1.27733e-02  -9.18109e-03  -2.14175e-03   5.78210e-03   1.29405e-02   1.71944e-02
   1.76058e-02   1.46710e-02   9.12214e-03   2.20098e-03  -5.19087e-03  -1.15066e-02
  -1.52263e-02  -1.59062e-02  -1.27146e-02  -9.04869e-03  -2.42107e-03   5.34988e-03
   1.17232e-02   1.55430e-02   1.61503e-02   1.29001e-02   7.36439e-03   4.30353e-04
  -6.52873e-03  -1.24866e-02  -1.55773e-02  -1.56790e-02  -1.22175e-02  -8.49961e-03
  -1.67417e-03   5.27627e-03   1.16017e-02   1.47510e-02   1.47042e-02   1.12721e-02
   6.23106e-03  -7.71971e-04  -7.71795e-03  -1.32015e-02  -1.63082e-02  -1.55565e-02
  -1.19925e-02  -7.87601e-03  -9.01413e-04   6.21199e-03   1.19871e-02   1.48560e-02
   1.44843e-02   1.06321e-02   4.87919e-03  -2.21360e-03  -9.34644e-03  -1.41570e-02
  -1.57706e-02  -1.41754e-02  -9.78828e-03  -6.12917e-03   1.01806e-03   7.91560e-03
   1.32211e-02   1.57808e-02   1.47901e-02   9.57351e-03   6.29742e-03  -2.22901e-03
  -9.93881e-03  -1.53124e-02  -1.69394e-02  -1.48994e-02  -9.03065e-03  -4.47682e-03
   3.33789e-03   1.04347e-02   1.61114e-02   1.83048e-02   1.64720e-02   1.12393e-02
   8.54156e-03  -9.04331e-04  -9.37007e-03  -1.53222e-02  -1.76219e-02  -1.51152e-02
  -9.29354e-03  -3.91832e-03   4.75818e-03   1.28248e-02   1.91223e-02   2.11784e-02
   1.96577e-02   1.40996e-02   1.12129e-02   2.08840e-03  -7.17791e-03  -1.41832e-02
  -1.69502e-02  -1.51169e-02  -8.84226e-03  -3.58280e-03   5.88094e-03   1.48045e-02
   2.17730e-02   2.45013e-02   2.28963e-02   1.71414e-02   1.43878e-02   4.96548e-03
  -5.07217e-03  -1.23559e-02  -1.57885e-02  -1.49039e-02  -9.28931e-03  -3.81807e-03
   5.70681e-03   1.54064e-02   2.24164e-02   2.63300e-02   2.53666e-02   2.02368e-02
   1.69346e-02   7.25344e-03  -2.58111e-03  -1.03717e-02  -1.48045e-02  -1.41817e-02
  -9.02273e-03  -3.93149e-03   5.65614e-03   1.52745e-02   2.30524e-02   2.73436e-02
   2.70820e-02   2.22718e-02   1.80567e-02   9.03330e-03  -9.90293e-04  -8.92049e-03
  -1.38153e-02  -1.44665e-02  -9.77748e-03  -4.91721e-03   4.38780e-03   1.42260e-02
   2.23353e-02   2.73412e-02   2.72032e-02   2.29687e-02   1.84324e-02   9.25973e-03
  -5.83120e-04  -8.40002e-03  -1.38619e-02  -1.45943e-02  -1.09566e-02  -6.12917e-03
   3.32248e-03   1.28012e-02   2.17468e-02   2.63121e-02   2.70757e-02   2.29796e-02
   1.77892e-02   9.27515e-03  -8.81232e-06  -8.36398e-03  -1.42845e-02  -1.54586e-02
  -1.20715e-02  -7.56185e-03   1.00264e-03   1.04176e-02   1.91077e-02   2.44930e-02
   2.53640e-02   2.22756e-02   1.60721e-02   8.43928e-03  -5.59486e-04  -8.35422e-03
  -1.36646e-02  -1.58977e-02  -1.31978e-02  -9.44005e-03  -1.44775e-03   7.89196e-03
   1.60968e-02   2.11727e-02   2.28963e-02   2.02351e-02   1.34515e-02   6.69893e-03
  -1.36318e-03  -8.37377e-03  -1.42737e-02  -1.58960e-02  -1.41391e-02  -1.03533e-02
  -3.02939e-03   5.47759e-03   1.31948e-02   1.82965e-02   1.96577e-02   1.71366e-02
   1.02955e-02   3.94477e-03  -3.41020e-03  -9.31197e-03  -1.38441e-02  -1.54540e-02
  -1.32020e-02  -1.01584e-02  -3.39014e-03   3.94227e-03   1.11615e-02   1.57630e-02
   1.64695e-02   1.40979e-02   7.57718e-03   1.05834e-03  -5.73198e-03  -1.11851e-02
  -1.40938e-02  -1.45880e-02  -1.20794e-02  -8.82778e-03  -2.72450e-03   4.48686e-03
   1.02384e-02   1.44506e-02   1.47839e-02   1.12431e-02   5.69005e-03  -1.50817e-03
  -8.05101e-03  -1.29066e-02  -1.50398e-02  -1.43051e-02  -1.09674e-02  -7.14945e-03
  -5.50588e-04   6.14472e-03   1.16736e-02   1.49234e-02   1.39252e-02   9.58432e-03
  -1.17347e-03  -7.49690e-03  -1.22418e-02  -1.36154e-02  -1.22284e-02  -9.68748e-03
  -5.96461e-03  -2.95536e-03   7.21451e-04   5.39403e-03   8.57119e-03   9.94876e-03
   7.59492e-03   3.32484e-03   3.69246e-04  -7.52684e-03  -1.37127e-02  -1.62805e-02
  -1.46728e-02  -1.01585e-02  -4.94124e-03  -3.97926e-04   5.65172e-03   1.09040e-02
   1.40507e-02   1.46330e-02   1.21550e-02   5.82107e-03   5.15039e-03  -4.07734e-03
  -1.22885e-02  -1.62987e-02  -1.57219e-02  -1.13744e-02  -4.33277e-03   8.41144e-04
   9.20162e-03   1.57854e-02   1.98639e-02   2.10367e-02   1.78490e-02   1.08159e-02
   1.10372e-02   8.71174e-04  -8.33047e-03  -1.36611e-02  -1.46929e-02  -1.13771e-02
  -4.38838e-03   1.54121e-03   1.07504e-02   1.85388e-02   2.39602e-02   2.62526e-02
   2.35156e-02   1.72015e-02   1.67033e-02   6.43679e-03  -2.60532e-03  -9.75587e-03
  -1.22595e-02  -1.01659e-02  -4.32604e-03   1.30896e-03   1.12590e-02   1.98055e-02
   2.65914e-02   2.91249e-02   2.79324e-02   2.19226e-02   2.04809e-02   1.10973e-02
   1.29276e-03  -6.19904e-03  -1.03329e-02  -9.69882e-03  -4.92757e-03   7.03015e-04
   1.03319e-02   1.93560e-02   2.74805e-02   3.10087e-02   3.03522e-02   2.56233e-02
   2.20695e-02   1.35276e-02   3.87430e-03  -4.79699e-03  -9.35862e-03  -9.89961e-03
  -5.94479e-03  -1.25100e-03   8.29729e-03   1.79209e-02   2.59567e-02   3.06320e-02
   3.11147e-02   2.73190e-02   2.26913e-02   1.43735e-02   4.37348e-03  -4.07806e-03
  -9.70463e-03  -1.09365e-02  -7.58800e-03  -2.95537e-03   5.62178e-03   1.57388e-02
   2.39145e-02   2.90938e-02   3.03409e-02   2.73388e-02   2.15757e-02   1.44034e-02
   5.09373e-03  -3.75100e-03  -9.77875e-03  -1.30079e-02  -1.13932e-02  -7.93905e-03
   6.91508e-04   1.08715e-02   1.98374e-02   2.62372e-02   2.79289e-02   2.56292e-02
   1.93838e-02   1.29130e-02   4.42015e-03  -3.73272e-03  -1.11639e-02  -1.47890e-02
  -1.47168e-02  -1.17406e-02  -4.31590e-03   5.34736e-03   1.40241e-02   2.10301e-02
   2.35168e-02   2.19166e-02   1.50420e-02   9.74446e-03   3.34933e-03  -4.03236e-03
  -9.75863e-03  -1.47864e-02  -1.56232e-02  -1.41033e-02  -8.21652e-03  -1.58790e-04
   8.52548e-03   1.46176e-02   1.78501e-02   1.71915e-02   9.08262e-03   4.63064e-03
   1.89686e-04  -5.20734e-03  -9.67353e-03  -1.30005e-02  -1.47235e-02  -1.38012e-02
  -9.46757e-03  -2.70326e-03   4.40696e-03   9.91765e-03   1.21515e-02   1.08100e-02
   3.12411e-03  -9.19983e-04  -4.67173e-03  -7.11623e-03  -9.47110e-03  -1.09252e-02
  -1.14069e-02  -1.05608e-02  -7.01962e-03  -2.10266e-03   3.62205e-03   7.06266e-03
   7.58357e-03   5.82701e-03  -4.83793e-04  -5.48285e-03  -9.61779e-03  -1.11225e-02
  -1.09652e-02  -9.63676e-03  -7.60781e-03  -6.11613e-03  -2.86805e-03   1.43243e-03
   5.50553e-03   7.26973e-03   7.01857e-03   3.34466e-03  -1.75894e-02  -2.15725e-02
  -2.00767e-02  -1.36774e-02  -6.06551e-03  -3.45952e-04   8.71223e-04   1.49185e-04
  -1.86444e-03  -3.99625e-03  -3.99487e-03  -4.51740e-03  -7.40369e-03  -1.33151e-02
  -1.37791e-02  -2.16284e-02  -2.34847e-02  -1.91351e-02  -1.11224e-02  -2.53141e-03
   4.29642e-03   6.52788e-03   7.55093e-03   7.30067e-03   6.47118e-03   4.71459e-03
  -2.40170e-04  -8.04845e-03  -5.26304e-03  -1.48586e-02  -2.01671e-02  -1.91672e-02
  -1.29799e-02  -4.55906e-03   4.21251e-03   9.11852e-03   1.32183e-02   1.58461e-02
   1.63530e-02   1.44387e-02   1.01032e-02   1.88340e-03   5.82405e-03  -3.82855e-03
  -1.07925e-02  -1.37600e-02  -1.11525e-02  -4.56273e-03   3.52598e-03   9.28936e-03
   1.64039e-02   2.12491e-02   2.31115e-02   2.24581e-02   1.88775e-02   1.18669e-02
   1.53607e-02   7.07139e-03  -6.82921e-04  -5.47070e-03  -6.11936e-03  -2.54287e-03
   4.22235e-03   9.85015e-03   1.65614e-02   2.34554e-02   2.72656e-02   2.82496e-02
   2.58140e-02   2.04880e-02   2.16180e-02   1.41778e-02   6.85920e-03   6.55341e-04
  -1.35836e-03  -3.63690e-04   4.31730e-03   8.33318e-03   1.56574e-02   2.31068e-02
   2.77232e-02   3.04312e-02   3.00342e-02   2.57966e-02   2.50904e-02   1.81360e-02
   1.07251e-02   4.60664e-03  -3.14109e-04  -1.18948e-03   9.04281e-04   4.83921e-03
   1.17595e-02   1.97279e-02   2.62963e-02   3.02516e-02   3.03901e-02   2.78207e-02
   2.53563e-02   1.90912e-02   1.24086e-02   4.27789e-03  -1.24410e-03  -4.08823e-03
  -2.99711e-03   1.49180e-04   7.49500e-03   1.57556e-02   2.30289e-02   2.81958e-02
   3.00164e-02   2.78537e-02   2.42825e-02   1.91472e-02   1.17645e-02   3.92213e-03
  -4.50304e-03  -9.61118e-03  -1.10421e-02  -8.57213e-03  -1.92037e-03   7.23990e-03
   1.63048e-02   2.24359e-02   2.58094e-02   2.58030e-02   1.97524e-02   1.70097e-02
   1.24990e-02   3.95427e-03  -4.83963e-03  -1.34901e-02  -1.81449e-02  -1.83149e-02
  -1.34858e-02  -4.08666e-03   6.42295e-03   1.44271e-02   1.88812e-02   2.04737e-02
   1.25139e-02   1.22320e-02   9.81585e-03   4.36048e-03  -4.47293e-03  -1.34865e-02
  -2.16441e-02  -2.40779e-02  -2.25957e-02  -1.43953e-02  -4.07747e-03   4.69239e-03
   1.01069e-02   1.18446e-02   2.22404e-03   3.86609e-03   4.56121e-03   3.84691e-03
  -1.19025e-03  -9.59973e-03  -1.81547e-02  -2.29427e-02  -2.45712e-02  -2.01375e-02
  -1.19229e-02  -4.57126e-03  -2.44697e-04   1.86910e-03  -8.74210e-03  -7.78533e-03
  -3.79541e-03  -1.10422e-03  -3.46072e-04  -4.07049e-03  -1.10630e-02  -1.53369e-02
  -2.01699e-02  -1.87419e-02  -1.43691e-02  -9.54063e-03  -7.42143e-03  -8.04204e-03
  -1.57781e-02  -1.78988e-02  -1.41994e-02  -8.40639e-03  -2.76541e-03  -7.33899e-04
  -3.03017e-03  -5.29453e-03  -9.78818e-03  -1.14722e-02  -9.90016e-03  -8.38233e-03
  -9.60423e-03  -1.32821e-02  -4.81103e-02  -5.15177e-02  -3.97334e-02  -1.79529e-02
   4.27132e-03   1.64919e-02   1.42799e-02   5.11209e-03  -1.12760e-02  -2.27098e-02
  -2.62759e-02  -2.54471e-02  -2.93141e-02  -4.06703e-02  -4.17840e-02  -5.16230e-02
  -4.77806e-02  -3.05596e-02  -7.79173e-03   1.13065e-02   1.87373e-02   1.71653e-02
   7.48190e-03  -2.56547e-03  -9.06865e-03  -1.25861e-02  -1.86554e-02  -3.18258e-02
  -2.51137e-02  -3.71465e-02  -3.99000e-02  -3.06159e-02  -1.32253e-02   5.41865e-03
   1.77806e-02   2.07092e-02   1.94364e-02   1.24060e-02   6.20426e-03   1.30060e-03
  -5.38854e-03  -1.59186e-02  -5.90812e-03  -1.57103e-02  -2.12834e-02  -1.80999e-02
  -7.83807e-03   5.41376e-03   1.67329e-02   2.11878e-02   2.29364e-02   2.10484e-02
   1.74333e-02   1.31767e-02   8.27514e-03   7.15565e-04   9.75348e-03   3.77462e-03
  -1.33202e-04  -2.20537e-05   4.19339e-03   1.12928e-02   1.77922e-02   2.07536e-02
   2.44341e-02   2.38481e-02   2.22018e-02   2.04197e-02   1.77355e-02   1.34816e-02
   1.98405e-02   1.73820e-02   1.52733e-02   1.45554e-02   1.44638e-02   1.64696e-02
   1.87651e-02   2.05057e-02   2.22213e-02   2.32718e-02   2.41181e-02   2.34862e-02
   2.20778e-02   2.10058e-02   2.35915e-02   2.29356e-02   2.17240e-02   1.90600e-02
   1.67249e-02   1.42866e-02   1.43287e-02   1.43425e-02   1.64733e-02   1.90267e-02
   2.10889e-02   2.24801e-02   2.38690e-02   2.38423e-02   2.40905e-02   2.40543e-02
   2.16299e-02   1.85386e-02   1.28001e-02   7.42514e-03   4.74614e-03   5.11208e-03
   7.37655e-03   1.22394e-02   1.72863e-02   2.03418e-02   2.20556e-02   2.38911e-02
   2.26372e-02   2.41596e-02   2.27980e-02   1.58425e-02   5.52130e-03  -5.99006e-03
  -1.33890e-02  -1.51919e-02  -1.13814e-02  -2.68710e-03   6.11008e-03   1.31393e-02
   1.77332e-02   2.10086e-02   1.71346e-02   2.19378e-02   2.17966e-02   1.58988e-02
   1.52121e-03  -1.61382e-02  -3.11306e-02  -3.61847e-02  -3.42488e-02  -2.28765e-02
  -9.16283e-03   1.27959e-03   8.28505e-03   1.34471e-02   5.19194e-03   1.35494e-02
   2.05435e-02   1.86856e-02   5.56765e-03  -1.61333e-02  -3.82823e-02  -4.86883e-02
  -5.29625e-02  -4.28139e-02  -2.64229e-02  -1.26236e-02  -5.37863e-03   6.67013e-04
  -1.22839e-02  -2.07658e-03   1.12186e-02   1.85974e-02   1.28780e-02  -5.97642e-03
  -3.11422e-02  -4.59054e-02  -5.84683e-02  -5.44979e-02  -3.96428e-02  -2.55251e-02
  -1.86577e-02  -1.59531e-02  -3.13311e-02  -2.30067e-02  -6.92014e-03   1.02948e-02
   1.71688e-02   7.44740e-03  -1.34169e-02  -2.97853e-02  -4.78455e-02  -5.21679e-02
  -4.34443e-02  -3.27696e-02  -2.93364e-02  -3.18229e-02  -4.55529e-02  -4.33622e-02
  -2.82871e-02  -5.80983e-03   1.15373e-02   1.61434e-02   4.69732e-03  -8.08566e-03
  -2.66382e-02  -3.65283e-02  -3.61003e-02  -3.11324e-02  -3.24294e-02  -4.06215e-02
  -9.36311e-02  -1.12505e-01  -8.90170e-02  -3.51457e-02   2.04349e-02   4.74729e-02
   3.65455e-02   1.12678e-02  -3.10406e-02  -5.52910e-02  -5.05632e-02  -3.51862e-02
  -3.69501e-02  -6.81728e-02  -8.31363e-02  -1.12704e-01  -1.06438e-01  -6.42174e-02
  -8.51293e-03   3.26315e-02   4.48976e-02   3.47875e-02   7.43580e-03  -2.03112e-02
  -2.86022e-02  -2.55626e-02  -3.00917e-02  -5.61679e-02  -5.57327e-02  -8.38958e-02
  -8.93410e-02  -6.43130e-02  -2.18453e-02   1.78327e-02   3.88649e-02   4.05282e-02
   2.55713e-02   5.35492e-03  -8.49452e-03  -1.28538e-02  -1.83528e-02  -3.64531e-02
  -2.51419e-02  -4.10361e-02  -4.73818e-02  -3.53867e-02  -8.56480e-03   1.78314e-02
   3.45827e-02   3.80611e-02   3.15360e-02   1.65535e-02   4.00883e-03  -2.52731e-03
  -6.36902e-03  -1.47131e-02  -1.17955e-04  -1.94497e-03  -1.41573e-03   6.78113e-03
   2.03540e-02   3.26268e-02   3.88672e-02   3.88870e-02   3.10344e-02   2.04006e-02
   9.86143e-03   3.59754e-03   1.35094e-03   1.11938e-03   1.21055e-02   2.04427e-02
   2.89897e-02   3.84644e-02   4.49940e-02   4.74604e-02   4.49132e-02   4.02878e-02
   3.07386e-02   2.01714e-02   1.04226e-02   5.57525e-03   5.34300e-03   8.38983e-03
   1.71089e-02   2.79005e-02   3.85718e-02   4.61555e-02   4.78358e-02   4.40380e-02
   3.65985e-02   2.97063e-02   2.15369e-02   1.36209e-02   8.48355e-03   5.42453e-03
   5.54317e-03   1.04481e-02   1.66552e-02   2.78952e-02   3.78795e-02   4.17503e-02
   3.80544e-02   2.89203e-02   1.74218e-02   1.12677e-02   7.23604e-03   5.03096e-03
   3.76789e-03   3.51672e-03   5.33052e-03   1.05010e-02   1.59257e-02   2.80949e-02
   3.56739e-02   3.23754e-02   1.79747e-02  -4.67630e-03  -2.57022e-02  -3.30520e-02
  -3.12404e-02  -2.05561e-02  -8.68335e-03  -2.58157e-03   1.36071e-03   8.36566e-03
   9.32901e-03   2.61261e-02   3.82035e-02   3.24710e-02   8.48419e-03  -2.94130e-02
  -6.63744e-02  -8.07613e-02  -7.91388e-02  -5.56149e-02  -2.87910e-02  -1.28969e-02
  -6.34535e-03   1.03764e-03  -7.45535e-03   1.54499e-02   3.68907e-02   4.19912e-02
   1.80265e-02  -2.94117e-02  -8.24270e-02  -1.08568e-01  -1.17811e-01  -9.09410e-02
  -5.08042e-02  -2.56168e-02  -1.83291e-02  -1.48163e-02  -3.50982e-02  -1.37485e-02
   2.16093e-02   4.58096e-02   3.81353e-02  -4.67160e-03  -6.63766e-02  -1.02714e-01
  -1.30198e-01  -1.11797e-01  -6.78571e-02  -3.52670e-02  -3.00819e-02  -3.65348e-02
  -6.58511e-02  -5.57544e-02  -1.58400e-02   3.03782e-02   4.92206e-02   2.89328e-02
  -2.57177e-02  -6.61048e-02  -1.07151e-01  -1.07532e-01  -7.27901e-02  -3.95600e-02
  -3.69626e-02  -5.61921e-02  -8.94140e-02  -9.58645e-02  -6.30911e-02  -7.26883e-03
   3.89018e-02   4.74738e-02   1.73689e-02  -1.70863e-02  -6.31155e-02  -7.98894e-02
  -6.29584e-02  -3.86642e-02  -3.87492e-02  -6.81199e-02  -1.43605e-01  -2.37707e-01
  -2.03881e-01  -8.06455e-02   4.23951e-02   1.06595e-01   7.87788e-02   2.15505e-02
  -6.93369e-02  -9.86946e-02  -4.19798e-02   4.32318e-02   5.84063e-02  -4.32366e-02
  -1.26220e-01  -2.38084e-01  -2.43067e-01  -1.47711e-01  -2.54454e-02   6.59039e-02
   9.18708e-02   6.98847e-02   3.00454e-03  -4.15893e-02  -3.28474e-02   1.11717e-02
   2.65958e-02  -4.13771e-02  -8.75898e-02  -1.75662e-01  -2.04493e-01  -1.47853e-01
  -5.23162e-02   2.86643e-02   7.07538e-02   6.96984e-02   3.55760e-02  -7.17213e-03
  -2.26875e-02  -9.56854e-03   3.46569e-04  -3.44021e-02  -4.33778e-02  -8.72263e-02
  -1.08348e-01  -8.09871e-02  -2.54437e-02   2.86821e-02   5.73877e-02   5.94221e-02
   3.86447e-02   6.04435e-03  -1.62939e-02  -1.85590e-02  -1.40287e-02  -2.32093e-02
  -1.40697e-02  -1.34690e-02  -6.65576e-03   1.33089e-02   4.24338e-02   6.59536e-02
   7.07059e-02   6.25019e-02   3.83255e-02   6.99794e-03  -1.57913e-02  -2.42112e-02
  -2.07611e-02  -1.52109e-02  -9.48386e-04   2.39010e-02   5.58499e-02   8.33856e-02
   1.02977e-01   1.06662e-01   9.18062e-02   7.31473e-02   3.92945e-02   6.68296e-03
  -1.67722e-02  -2.76316e-02  -2.64385e-02  -1.44829e-02  -1.70328e-03   3.02628e-02
   6.70463e-02   9.69053e-02   1.08746e-01   1.01431e-01   7.87662e-02   6.03236e-02
   2.89523e-02   4.22957e-03  -1.55978e-02  -2.68314e-02  -2.82108e-02  -1.70521e-02
  -2.62751e-03   2.73182e-02   5.88961e-02   8.00117e-02   8.27078e-02   6.40664e-02
   3.82041e-02   2.15505e-02   2.62779e-03  -7.78415e-03  -1.66355e-02  -2.41725e-02