# Created by Wannier.jl 2022-09-01T13:05:27.307
CRYSTAL
PRIMVEC
   2.1304216   -1.2299995    0.0000000
   0.0000000    2.4599989    0.0000000
   0.0000000    0.0000000   10.0000000
CONVVEC
   2.1304216   -1.2299995    0.0000000
   0.0000000    2.4599989    0.0000000
   0.0000000    0.0000000   10.0000000
PRIMCOORD
2 1
6    0.0000000    0.0000000    5.0000000
6    0.7101405    1.2299995    5.0000000

BEGIN_BLOCK_DATAGRID_3D
3D_field
BEGIN_DATAGRID_3D_UNKNOWN
14 14 54
  -2.1304216   -1.2299995  -10.0000000
   3.9564972   -2.2842847    0.0000000
   0.0000000    4.5685694    0.0000000
   0.0000000    0.0000000   19.6296296
  -2.79122e-02  -2.77322e-02  -2.75043e-02  -2.72866e-02  -2.73366e-02  -2.76481e-02
  -2.76626e-02  -2.79122e-02  -2.82536e-02  -2.86249e-02  -2.86413e-02  -2.86930e-02
  -2.84485e-02  -2.82541e-02  -2.80400e-02  -2.77317e-02  -2.75544e-02  -2.72830e-02
  -2.70440e-02  -2.74448e-02  -2.75415e-02  -2.77321e-02  -2.80405e-02  -2.82109e-02
  -2.84131e-02  -2.85316e-02  -2.83512e-02  -2.81251e-02  -2.79965e-02  -2.78782e-02
  -2.75039e-02  -2.72828e-02  -2.71417e-02  -2.70595e-02  -2.74205e-02  -2.75043e-02
  -2.78783e-02  -2.79969e-02  -2.83735e-02  -2.86254e-02  -2.86095e-02  -2.82293e-02
  -2.83665e-02  -2.81054e-02  -2.76512e-02  -2.72862e-02  -2.70444e-02  -2.70596e-02
  -2.71142e-02  -2.72867e-02  -2.76512e-02  -2.81053e-02  -2.83670e-02  -2.86346e-02
  -2.83427e-02  -2.86241e-02  -2.85976e-02  -2.82179e-02  -2.78781e-02  -2.76492e-02
  -2.73369e-02  -2.74466e-02  -2.74234e-02  -2.73366e-02  -2.76493e-02  -2.78784e-02
  -2.82180e-02  -2.85973e-02  -2.87729e-02  -2.86798e-02  -2.87247e-02  -2.84774e-02
  -2.82988e-02  -2.78405e-02  -2.77252e-02  -2.76491e-02  -2.75460e-02  -2.76481e-02
  -2.77254e-02  -2.78422e-02  -2.83005e-02  -2.84776e-02  -2.87237e-02  -2.89226e-02
  -2.87083e-02  -2.86774e-02  -2.84568e-02  -2.83286e-02  -2.81394e-02  -2.79136e-02
  -2.76658e-02  -2.76627e-02  -2.79135e-02  -2.81430e-02  -2.83325e-02  -2.84605e-02
  -2.86773e-02  -2.87052e-02  -2.90001e-02  -2.86659e-02  -2.85966e-02  -2.86711e-02
  -2.81859e-02  -2.79341e-02  -2.80534e-02  -2.79123e-02  -2.80401e-02  -2.79966e-02
  -2.83666e-02  -2.85976e-02  -2.87247e-02  -2.87083e-02  -2.86659e-02  -2.86664e-02
  -2.89880e-02  -2.86937e-02  -2.85349e-02  -2.83439e-02  -2.81673e-02  -2.82537e-02
  -2.82532e-02  -2.82099e-02  -2.83730e-02  -2.86354e-02  -2.87750e-02  -2.89269e-02
  -2.85966e-02  -2.86659e-02  -2.85969e-02  -2.86939e-02  -2.82796e-02  -2.86519e-02
  -2.84512e-02  -2.86250e-02  -2.84768e-02  -2.86246e-02  -2.84126e-02  -2.86260e-02
  -2.83455e-02  -2.86842e-02  -2.86711e-02  -2.84142e-02  -2.84144e-02  -2.86715e-02
  -2.85345e-02  -2.86518e-02  -2.85265e-02  -2.86413e-02  -2.86332e-02  -2.86331e-02
  -2.86409e-02  -2.85324e-02  -2.86123e-02  -2.86294e-02  -2.81859e-02  -2.81043e-02
  -2.81753e-02  -2.81042e-02  -2.81855e-02  -2.83421e-02  -2.84482e-02  -2.86930e-02
  -2.85950e-02  -2.88003e-02  -2.85952e-02  -2.86934e-02  -2.83534e-02  -2.82337e-02
  -2.79341e-02  -2.80528e-02  -2.78088e-02  -2.78083e-02  -2.80520e-02  -2.79330e-02
  -2.81628e-02  -2.84485e-02  -2.86104e-02  -2.88073e-02  -2.88078e-02  -2.86112e-02
  -2.84496e-02  -2.81294e-02  -2.80533e-02  -2.79237e-02  -2.75374e-02  -2.74962e-02
  -2.75376e-02  -2.79221e-02  -2.80502e-02  -2.82540e-02  -2.83947e-02  -2.86372e-02
  -2.85340e-02  -2.86371e-02  -2.83963e-02  -2.82572e-02  -3.09217e-02  -2.51805e-02
  -2.07547e-02  -1.83899e-02  -1.90332e-02  -2.19511e-02  -2.69838e-02  -3.09217e-02
  -3.65299e-02  -4.10367e-02  -4.33781e-02  -4.27297e-02  -3.98272e-02  -3.47581e-02
  -3.16740e-02  -2.51702e-02  -1.93652e-02  -1.55986e-02  -1.45965e-02  -1.65270e-02
  -2.12129e-02  -2.51804e-02  -3.16842e-02  -3.75448e-02  -4.14144e-02  -4.26071e-02
  -4.03983e-02  -3.57124e-02  -3.40855e-02  -2.73247e-02  -2.07422e-02  -1.55956e-02
  -1.27521e-02  -1.34152e-02  -1.71243e-02  -2.07547e-02  -2.73268e-02  -3.40980e-02
  -3.92093e-02  -4.20834e-02  -4.14170e-02  -3.76927e-02  -3.74406e-02  -3.14843e-02
  -2.46534e-02  -1.83833e-02  -1.46018e-02  -1.34281e-02  -1.55624e-02  -1.83899e-02
  -2.46527e-02  -3.14836e-02  -3.74472e-02  -4.14537e-02  -4.28315e-02  -4.03187e-02
  -4.13791e-02  -3.64188e-02  -3.01277e-02  -2.36599e-02  -1.90403e-02  -1.65572e-02
  -1.71742e-02  -1.90333e-02  -2.36614e-02  -3.01324e-02  -3.64204e-02  -4.13720e-02
  -4.37870e-02  -4.31109e-02  -4.45180e-02  -4.11208e-02  -3.60321e-02  -3.04387e-02
  -2.53504e-02  -2.19800e-02  -2.12872e-02  -2.19512e-02  -2.53566e-02  -3.04668e-02
  -3.60602e-02  -4.11270e-02  -4.44892e-02  -4.51637e-02  -4.63665e-02  -4.46157e-02
  -4.13691e-02  -3.66361e-02  -3.21870e-02  -2.86881e-02  -2.70423e-02  -2.69839e-02
  -2.86978e-02  -3.22475e-02  -3.67192e-02  -4.14295e-02  -4.46254e-02  -4.63081e-02
  -4.65447e-02  -4.59523e-02  -4.36419e-02  -4.00275e-02  -3.62537e-02  -3.31503e-02
  -3.12155e-02  -3.09218e-02  -3.16740e-02  -3.40855e-02  -3.74406e-02  -4.13791e-02
  -4.45180e-02  -4.63665e-02  -4.59523e-02  -4.59626e-02  -4.47679e-02  -4.31299e-02
  -4.07152e-02  -3.84884e-02  -3.71336e-02  -3.65300e-02  -3.65197e-02  -3.75250e-02
  -3.91981e-02  -4.14651e-02  -4.38306e-02  -4.52458e-02  -4.36419e-02  -4.36085e-02
  -4.36545e-02  -4.31328e-02  -4.25804e-02  -4.17762e-02  -4.13278e-02  -4.10368e-02
  -4.09340e-02  -4.10243e-02  -4.14031e-02  -4.20967e-02  -4.28835e-02  -4.32069e-02
  -4.00274e-02  -3.96802e-02  -3.96826e-02  -4.00341e-02  -4.07098e-02  -4.17633e-02
  -4.29567e-02  -4.33782e-02  -4.35162e-02  -4.35138e-02  -4.33716e-02  -4.26185e-02
  -4.14691e-02  -4.04201e-02  -3.62536e-02  -3.47401e-02  -3.42349e-02  -3.47366e-02
  -3.62465e-02  -3.84582e-02  -4.12779e-02  -4.27297e-02  -4.45505e-02  -4.48121e-02
  -4.45540e-02  -4.27368e-02  -4.04419e-02  -3.77887e-02  -3.31503e-02  -2.99692e-02
  -2.81057e-02  -2.81016e-02  -2.99546e-02  -3.31214e-02  -3.70593e-02  -3.98272e-02
  -4.28295e-02  -4.46898e-02  -4.46939e-02  -4.28442e-02  -3.98561e-02  -3.57946e-02
  -3.12155e-02  -2.63458e-02  -2.32050e-02  -2.17426e-02  -2.31950e-02  -2.63195e-02
  -3.11571e-02  -3.47580e-02  -3.95621e-02  -4.26005e-02  -4.42235e-02  -4.26105e-02
  -3.95884e-02  -3.48165e-02  -1.36487e-02  -3.04784e-03   5.42978e-03   9.42659e-03
   8.72466e-03   2.96201e-03  -6.43284e-03  -1.36486e-02  -2.42825e-02  -3.25745e-02
  -3.66561e-02  -3.59872e-02  -3.00832e-02  -2.09412e-02  -1.53245e-02  -3.02809e-03
   8.12903e-03   1.54112e-02   1.71973e-02   1.35067e-02   4.71475e-03  -3.04782e-03
  -1.53443e-02  -2.64532e-02  -3.36625e-02  -3.52562e-02  -3.17708e-02  -2.31504e-02
  -2.01388e-02  -7.49877e-03   5.45408e-03   1.54171e-02   2.01885e-02   1.92587e-02
   1.25298e-02   5.42980e-03  -7.50358e-03  -2.01631e-02  -3.01599e-02  -3.48553e-02
  -3.39281e-02  -2.72733e-02  -2.67707e-02  -1.50626e-02  -1.98092e-03   9.43964e-03
   1.71865e-02   1.92352e-02   1.50950e-02   9.42658e-03  -1.97991e-03  -1.50616e-02
  -2.67837e-02  -3.43802e-02  -3.61220e-02  -3.24074e-02  -3.35996e-02  -2.43553e-02
  -1.25761e-02  -9.51783e-04   8.71093e-03   1.34486e-02   1.24362e-02   8.72462e-03
  -9.54328e-04  -1.25848e-02  -2.43578e-02  -3.35859e-02  -3.82478e-02  -3.73325e-02
  -3.97308e-02  -3.36672e-02  -2.39389e-02  -1.30948e-02  -3.35740e-03   2.90575e-03
   4.57316e-03   2.96195e-03  -3.36795e-03  -1.31458e-02  -2.39899e-02  -3.36778e-02
  -3.96746e-02  -4.13033e-02  -4.34881e-02  -4.01184e-02  -3.33746e-02  -2.48728e-02
  -1.64078e-02  -9.92589e-03  -6.54510e-03  -6.43291e-03  -9.94035e-03  -1.65240e-02
  -2.50238e-02  -3.34907e-02  -4.01328e-02  -4.33759e-02  -4.41173e-02  -4.25857e-02
  -3.78798e-02  -3.13540e-02  -2.44097e-02  -1.83398e-02  -1.43203e-02  -1.36487e-02
  -1.53246e-02  -2.01389e-02  -2.67707e-02  -3.35997e-02  -3.97308e-02  -4.34881e-02
  -4.25857e-02  -4.26054e-02  -4.06286e-02  -3.70574e-02  -3.29386e-02  -2.88355e-02
  -2.54520e-02  -2.42825e-02  -2.42628e-02  -2.64149e-02  -3.01383e-02  -3.44024e-02
  -3.83318e-02  -4.14594e-02  -3.78798e-02  -3.83038e-02  -3.79041e-02  -3.70633e-02
  -3.57494e-02  -3.44331e-02  -3.31423e-02  -3.25746e-02  -3.21620e-02  -3.25503e-02
  -3.36409e-02  -3.48803e-02  -3.62203e-02  -3.75136e-02  -3.13539e-02  -3.07277e-02
  -3.07322e-02  -3.13670e-02  -3.29278e-02  -3.44096e-02  -3.55312e-02  -3.66561e-02
  -3.74736e-02  -3.74691e-02  -3.66431e-02  -3.52784e-02  -3.40265e-02  -3.25946e-02
  -2.44097e-02  -2.13010e-02  -2.01383e-02  -2.12945e-02  -2.43960e-02  -2.87775e-02
  -3.30487e-02  -3.59872e-02  -3.87206e-02  -3.98011e-02  -3.87272e-02  -3.60009e-02
  -3.18548e-02  -2.74543e-02  -1.83397e-02  -1.21642e-02  -8.92115e-03  -8.91245e-03
  -1.21353e-02  -1.82835e-02  -2.53104e-02  -3.00832e-02  -3.61407e-02  -3.91506e-02
  -3.91593e-02  -3.61697e-02  -3.01394e-02  -2.33066e-02  -1.43202e-02  -5.64277e-03
   8.65217e-04   2.68493e-03   8.82164e-04  -5.59042e-03  -1.42080e-02  -2.09412e-02
  -2.96520e-02  -3.61844e-02  -3.81505e-02  -3.62013e-02  -2.97043e-02  -2.10534e-02
   2.97689e-02   4.43398e-02   5.57062e-02   6.16504e-02   6.03652e-02   5.25515e-02
   3.94960e-02   2.97689e-02   1.51890e-02   4.00928e-03  -1.61736e-03  -3.97243e-04
   7.04858e-03   2.00392e-02   2.72342e-02   4.43685e-02   5.95711e-02   6.97455e-02
   7.25385e-02   6.69675e-02   5.50193e-02   4.43398e-02   2.72055e-02   1.21436e-02
   2.10031e-03  -6.52020e-04   4.78144e-03   1.67612e-02   2.03124e-02   3.80062e-02
   5.57418e-02   6.97540e-02   7.68575e-02   7.54460e-02   6.55623e-02   5.57062e-02
   3.79976e-02   2.02768e-02   6.52975e-03  -2.90993e-04   1.16245e-03   1.05018e-02
   1.06258e-02   2.69202e-02   4.51571e-02   6.16698e-02   7.25232e-02   7.54113e-02
   6.95477e-02   6.16504e-02   4.51575e-02   2.69206e-02   1.06064e-02   8.11512e-05
  -2.94987e-03   2.97942e-03   2.17340e-04   1.33434e-02   3.01918e-02   4.72845e-02
   6.03448e-02   6.68842e-02   6.54292e-02   6.03651e-02   4.72823e-02   3.01807e-02
   1.33411e-02   2.37697e-04  -6.02204e-03  -4.62005e-03  -8.36666e-03   7.73037e-04
   1.44120e-02   2.95615e-02   4.31941e-02   5.24700e-02   5.48158e-02   5.25515e-02
   4.31834e-02   2.94939e-02   1.43443e-02   7.62317e-04  -8.28522e-03  -1.05126e-02
  -1.35663e-02  -8.87222e-03   6.07117e-04   1.26612e-02   2.50507e-02   3.47238e-02
   3.93318e-02   3.94959e-02   3.47096e-02   2.48977e-02   1.24547e-02   4.54179e-04
  -8.88644e-03  -1.34021e-02  -1.47730e-02  -1.22268e-02  -5.79294e-03   3.58052e-03
   1.40063e-02   2.31139e-02   2.85857e-02   2.97689e-02   2.72342e-02   2.03124e-02
   1.06258e-02   2.17310e-04  -8.36668e-03  -1.35663e-02  -1.22268e-02  -1.22555e-02
  -9.58403e-03  -4.15978e-03   2.31199e-03   8.61585e-03   1.34077e-02   1.51889e-02
   1.52177e-02   1.21978e-02   6.56029e-03   5.00380e-05  -6.13986e-03  -1.07335e-02
  -5.79294e-03  -6.18157e-03  -5.82851e-03  -4.16832e-03  -2.26646e-03   6.05215e-04
   2.99323e-03   4.00925e-03   4.75802e-03   4.04480e-03   2.13086e-03  -3.26222e-04
  -3.08734e-03  -4.86973e-03   3.58052e-03   4.67026e-03   4.66354e-03   3.56114e-03
   2.32731e-03   6.39936e-04  -9.90490e-04  -1.61737e-03  -2.27881e-03  -2.27210e-03
  -1.59801e-03  -6.83134e-04   1.02498e-03   2.71859e-03   1.40063e-02   1.79659e-02
   1.95687e-02   1.79761e-02   1.40267e-02   8.69920e-03   3.12637e-03  -3.97240e-04
  -4.00159e-03  -5.40838e-03  -4.01181e-03  -4.17634e-04   4.66362e-03   1.02522e-02
   2.31139e-02   3.09379e-02   3.54226e-02   3.54355e-02   3.09808e-02   2.31953e-02
   1.36112e-02   7.04859e-03  -3.88667e-04  -4.80754e-03  -4.82042e-03  -4.31567e-04
   6.96712e-03   1.65403e-02   2.85857e-02   4.07767e-02   4.91834e-02   5.26192e-02
   4.92126e-02   4.08568e-02   2.87499e-02   2.00392e-02   7.90861e-03  -2.94488e-04
  -3.22515e-03  -3.23707e-04   7.82859e-03   1.98751e-02   1.00604e-01   1.17086e-01
   1.30079e-01   1.36778e-01   1.35483e-01   1.26156e-01   1.12072e-01   1.00604e-01
   8.42970e-02   7.16204e-02   6.51334e-02   6.64916e-02   7.53340e-02   8.92720e-02
   9.73088e-02   1.17123e-01   1.34728e-01   1.46682e-01   1.49808e-01   1.43685e-01
   1.29098e-01   1.17086e-01   9.72715e-02   7.98355e-02   6.82673e-02   6.52084e-02
   7.11985e-02   8.52894e-02   8.84361e-02   1.09340e-01   1.30125e-01   1.46693e-01
   1.55216e-01   1.53165e-01   1.41993e-01   1.30079e-01   1.09325e-01   8.83900e-02
   7.22555e-02   6.37602e-02   6.55981e-02   7.70397e-02   7.58177e-02   9.49938e-02
   1.17145e-01   1.36804e-01   1.49788e-01   1.53122e-01   1.46333e-01   1.36778e-01
   1.17143e-01   9.49913e-02   7.57926e-02   6.27850e-02   5.96577e-02   6.62654e-02
   6.23694e-02   7.81276e-02   9.87687e-02   1.19282e-01   1.35457e-01   1.43579e-01
   1.41826e-01   1.35483e-01   1.19282e-01   9.87587e-02   7.81278e-02   6.23958e-02
   5.43649e-02   5.61359e-02   5.13055e-02   6.20889e-02   7.87444e-02   9.79444e-02
   1.15113e-01   1.26050e-01   1.28846e-01   1.26156e-01   1.15112e-01   9.78751e-02
   7.86751e-02   6.20874e-02   5.14113e-02   4.85586e-02   4.46642e-02   5.04484e-02
   6.22363e-02   7.76724e-02   9.31202e-02   1.05559e-01   1.11859e-01   1.12072e-01
   1.05561e-01   9.29556e-02   7.74446e-02   6.20717e-02   5.04501e-02   4.48764e-02
   4.35124e-02   4.62490e-02   5.46096e-02   6.67342e-02   8.02599e-02   9.19507e-02
   9.91145e-02   1.00604e-01   9.73088e-02   8.84361e-02   7.58177e-02   6.23694e-02
   5.13055e-02   4.46642e-02   4.62490e-02   4.62117e-02   5.00053e-02   5.67954e-02
   6.59585e-02   7.51240e-02   8.19021e-02   8.42970e-02   8.43344e-02   7.99020e-02
   7.22929e-02   6.27471e-02   5.42219e-02   4.82938e-02   5.46096e-02   5.35171e-02
   5.45635e-02   5.67844e-02   6.10569e-02   6.53608e-02   6.95431e-02   7.16204e-02
   7.29334e-02   7.16665e-02   6.83047e-02   6.37183e-02   5.94960e-02   5.58427e-02
   6.67342e-02   6.71245e-02   6.71153e-02   6.67091e-02   6.59782e-02   6.54035e-02
   6.53931e-02   6.51334e-02   6.56290e-02   6.56381e-02   6.51585e-02   6.51705e-02
   6.54365e-02   6.59661e-02   8.02599e-02   8.38484e-02   8.51610e-02   8.38622e-02
   8.02864e-02   7.52294e-02   6.97098e-02   6.64916e-02   6.35462e-02   6.25700e-02
   6.35325e-02   6.64652e-02   7.10556e-02   7.67465e-02   9.19507e-02   1.00228e-01
   1.05238e-01   1.05257e-01   1.00289e-01   9.20564e-02   8.21543e-02   7.53340e-02
   6.75752e-02   6.32808e-02   6.32612e-02   6.75145e-02   7.52282e-02   8.50246e-02
   9.91145e-02   1.12634e-01   1.22208e-01   1.25552e-01   1.22254e-01   1.12748e-01
   9.93268e-02   8.92721e-02   7.64063e-02   6.74364e-02   6.39525e-02   6.73899e-02
   7.62920e-02   8.90598e-02   1.94541e-01   2.09308e-01   2.21393e-01   2.27354e-01
   2.26108e-01   2.17998e-01   2.04410e-01   1.94541e-01   1.80368e-01   1.69288e-01
   1.63941e-01   1.65007e-01   1.72412e-01   1.84941e-01   1.90437e-01   2.09354e-01
   2.26976e-01   2.38200e-01   2.41419e-01   2.35249e-01   2.21578e-01   2.09308e-01
   1.90392e-01   1.73484e-01   1.63067e-01   1.60036e-01   1.65790e-01   1.78617e-01
   1.79094e-01   2.00092e-01   2.21451e-01   2.38213e-01   2.46298e-01   2.44781e-01
   2.33242e-01   2.21393e-01   2.00064e-01   1.79036e-01   1.62508e-01   1.54687e-01
   1.56279e-01   1.67266e-01   1.63342e-01   1.83934e-01   2.06660e-01   2.27386e-01
   2.41395e-01   2.44733e-01   2.37594e-01   2.27354e-01   2.06650e-01   1.83924e-01
   1.63311e-01   1.50395e-01   1.46913e-01   1.53861e-01   1.47648e-01   1.64326e-01
   1.86133e-01   2.08340e-01   2.26075e-01   2.35126e-01   2.33062e-01   2.26108e-01
   2.08347e-01   1.86130e-01   1.64333e-01   1.47681e-01   1.39297e-01   1.41172e-01
   1.34599e-01   1.46407e-01   1.64575e-01   1.85811e-01   2.04889e-01   2.17866e-01
   2.21294e-01   2.17998e-01   2.04913e-01   1.85769e-01   1.64532e-01   1.46430e-01
   1.34731e-01   1.31909e-01   1.27029e-01   1.33569e-01   1.46633e-01   1.64117e-01
   1.82522e-01   1.96963e-01   2.04153e-01   2.04410e-01   1.97009e-01   1.82399e-01
   1.63931e-01   1.46510e-01   1.33615e-01   1.27286e-01   1.25683e-01   1.28891e-01
   1.38363e-01   1.52786e-01   1.68810e-01   1.83463e-01   1.92791e-01   1.94541e-01
   1.90437e-01   1.79094e-01   1.63342e-01   1.47648e-01   1.34599e-01   1.27029e-01
   1.28891e-01   1.28846e-01   1.33719e-01   1.42644e-01   1.54275e-01   1.66606e-01
   1.76457e-01   1.80368e-01   1.80414e-01   1.73558e-01   1.62548e-01   1.50354e-01
   1.39143e-01   1.31628e-01   1.38363e-01   1.37064e-01   1.38305e-01   1.42630e-01
   1.49275e-01   1.57628e-01   1.65531e-01   1.69288e-01   1.71684e-01   1.69346e-01
   1.63108e-01   1.54644e-01   1.46751e-01   1.40890e-01   1.52786e-01   1.51911e-01
   1.51900e-01   1.52755e-01   1.54298e-01   1.57677e-01   1.61442e-01   1.63941e-01
   1.66375e-01   1.66386e-01   1.63973e-01   1.59995e-01   1.56117e-01   1.53579e-01
   1.68809e-01   1.70964e-01   1.71574e-01   1.70982e-01   1.68843e-01   1.66729e-01
   1.65711e-01   1.65007e-01   1.65189e-01   1.65428e-01   1.65171e-01   1.64974e-01
   1.65636e-01   1.66984e-01   1.83463e-01   1.89818e-01   1.93233e-01   1.93262e-01
   1.89900e-01   1.83594e-01   1.76740e-01   1.72412e-01   1.67741e-01   1.65605e-01
   1.65576e-01   1.67659e-01   1.72281e-01   1.78335e-01   1.92791e-01   2.04092e-01
   2.12394e-01   2.15407e-01   2.12470e-01   2.04253e-01   1.93047e-01   1.84941e-01
   1.74276e-01   1.67220e-01   1.64975e-01   1.67144e-01   1.74115e-01   1.84685e-01
   3.01065e-01   3.07751e-01   3.13553e-01   3.16699e-01   3.16184e-01   3.11774e-01
   3.05448e-01   3.01065e-01   2.95754e-01   2.92831e-01   2.91837e-01   2.91915e-01
   2.93565e-01   2.97353e-01   2.95666e-01   3.07805e-01   3.18953e-01   3.27154e-01
   3.29179e-01   3.24921e-01   3.15525e-01   3.07751e-01   2.95613e-01   2.86012e-01
   2.79718e-01   2.78380e-01   2.81367e-01   2.88817e-01   2.81169e-01   2.97064e-01
   3.13624e-01   3.27171e-01   3.34276e-01   3.32751e-01   3.23221e-01   3.13553e-01
   2.97013e-01   2.81098e-01   2.69630e-01   2.63980e-01   2.65040e-01   2.72986e-01
   2.62569e-01   2.78964e-01   2.98588e-01   3.16740e-01   3.29152e-01   3.32699e-01
   3.25737e-01   3.16699e-01   2.98563e-01   2.78939e-01   2.62528e-01   2.52109e-01
   2.49399e-01   2.54909e-01   2.44501e-01   2.58991e-01   2.78439e-01   2.99131e-01
   3.16142e-01   3.24788e-01   3.23048e-01   3.16184e-01   2.99156e-01   2.78457e-01
   2.59015e-01   2.44543e-01   2.37954e-01   2.39118e-01   2.31180e-01   2.41512e-01
   2.58186e-01   2.78417e-01   2.97989e-01   3.11615e-01   3.15241e-01   3.11774e-01
   2.98076e-01   2.78456e-01   2.58225e-01   2.41598e-01   2.31339e-01   2.28684e-01
   2.23458e-01   2.29364e-01   2.42292e-01   2.59780e-01   2.79362e-01   2.96300e-01
   3.05151e-01   3.05448e-01   2.96448e-01   2.79383e-01   2.59752e-01   2.42313e-01
   2.29513e-01   2.23755e-01   2.22197e-01   2.25288e-01   2.35034e-01   2.50167e-01
   2.68907e-01   2.86757e-01   2.98665e-01   3.01065e-01   2.95666e-01   2.81169e-01
   2.62569e-01   2.44501e-01   2.31180e-01   2.23458e-01   2.25288e-01   2.25235e-01
   2.30927e-01   2.42001e-01   2.57843e-01   2.75492e-01   2.90189e-01   2.95754e-01
   2.95807e-01   2.86081e-01   2.69668e-01   2.52071e-01   2.37817e-01   2.28442e-01
   2.35034e-01   2.32559e-01   2.34963e-01   2.41985e-01   2.53687e-01   2.69301e-01
   2.84830e-01   2.92831e-01   2.98007e-01   2.92902e-01   2.79756e-01   2.63945e-01
   2.49278e-01   2.38935e-01   2.50167e-01   2.46932e-01   2.46917e-01   2.50126e-01
   2.57870e-01   2.69352e-01   2.83209e-01   2.91837e-01   2.99737e-01   2.99752e-01
   2.91877e-01   2.78342e-01   2.64919e-01   2.54752e-01   2.68907e-01   2.65483e-01
   2.64659e-01   2.65508e-01   2.68949e-01   2.75625e-01   2.85002e-01   2.91915e-01
   3.00393e-01   3.03690e-01   3.00367e-01   2.91873e-01   2.81230e-01   2.72803e-01
   2.86757e-01   2.85492e-01   2.85410e-01   2.85453e-01   2.85610e-01   2.86915e-01
   2.90474e-01   2.93565e-01   2.99311e-01   3.02928e-01   3.02885e-01   2.99194e-01
   2.93406e-01   2.88575e-01   2.98665e-01   3.01641e-01   3.04360e-01   3.05551e-01
   3.04489e-01   3.01877e-01   2.98962e-01   2.97353e-01   2.97145e-01   2.97651e-01
   2.98171e-01   2.97522e-01   2.96909e-01   2.97056e-01   4.05120e-01   3.91167e-01
   3.81954e-01   3.78670e-01   3.79238e-01   3.84340e-01   3.95332e-01   4.05120e-01
   4.22642e-01   4.38832e-01   4.47245e-01   4.45649e-01   4.33937e-01   4.16683e-01
   3.97838e-01   3.91229e-01   3.87717e-01   3.86450e-01   3.86310e-01   3.86770e-01
   3.88542e-01   3.91167e-01   3.97776e-01   4.05830e-01   4.12184e-01   4.13754e-01
   4.10412e-01   4.03234e-01   3.78476e-01   3.79278e-01   3.82045e-01   3.86470e-01
   3.89266e-01   3.88409e-01   3.85272e-01   3.81954e-01   3.79179e-01   3.78385e-01
   3.79247e-01   3.79828e-01   3.79841e-01   3.78770e-01   3.55326e-01   3.60441e-01
   3.68737e-01   3.78724e-01   3.86277e-01   3.88359e-01   3.84480e-01   3.78670e-01
   3.68678e-01   3.60382e-01   3.55271e-01   3.52894e-01   3.52141e-01   3.53289e-01
   3.35841e-01   3.41635e-01   3.52162e-01   3.66205e-01   3.79182e-01   3.86633e-01
   3.85152e-01   3.79238e-01   3.66267e-01   3.52225e-01   3.41697e-01   3.35897e-01
   3.33391e-01   3.33906e-01   3.23781e-01   3.28311e-01   3.38426e-01   3.53507e-01
   3.71107e-01   3.84142e-01   3.88305e-01   3.84340e-01   3.71330e-01   3.53739e-01
   3.38658e-01   3.28533e-01   3.23978e-01   3.22659e-01   3.18261e-01   3.21502e-01
   3.29689e-01   3.44942e-01   3.65071e-01   3.84125e-01   3.94993e-01   3.95332e-01
   3.84488e-01   3.65433e-01   3.45298e-01   3.30050e-01   3.21865e-01   3.18600e-01
   3.17207e-01   3.19579e-01   3.26962e-01   3.41596e-01   3.62922e-01   3.85858e-01
   4.01876e-01   4.05120e-01   3.97838e-01   3.78476e-01   3.55326e-01   3.35841e-01
   3.23781e-01   3.18261e-01   3.19579e-01   3.19517e-01   3.25034e-01   3.38923e-01
   3.61093e-01   3.88580e-01   4.12925e-01   4.22642e-01   4.22705e-01   4.05879e-01
   3.79271e-01   3.52869e-01   3.33311e-01   3.22551e-01   3.26962e-01   3.23099e-01
   3.26871e-01   3.38903e-01   3.60350e-01   3.90538e-01   4.22199e-01   4.38832e-01
   4.49351e-01   4.38923e-01   4.12208e-01   3.79815e-01   3.52135e-01   3.33987e-01
   3.41596e-01   3.32011e-01   3.31988e-01   3.41542e-01   3.61125e-01   3.90587e-01
   4.25481e-01   4.47245e-01   4.69192e-01   4.69214e-01   4.47299e-01   4.13729e-01
   3.79835e-01   3.53440e-01   3.62922e-01   3.47505e-01   3.42623e-01   3.47544e-01
   3.62978e-01   3.88718e-01   4.22319e-01   4.45649e-01   4.74836e-01   4.85497e-01
   4.74797e-01   4.45593e-01   4.10332e-01   3.78851e-01   3.85858e-01   3.67077e-01
   3.57725e-01   3.57798e-01   3.67261e-01   3.86055e-01   4.13162e-01   4.33937e-01
   4.63765e-01   4.82360e-01   4.82287e-01   4.63581e-01   4.33740e-01   4.03126e-01
   4.01876e-01   3.84267e-01   3.73819e-01   3.70757e-01   3.74056e-01   3.84638e-01
   4.02214e-01   4.16683e-01   4.40797e-01   4.59901e-01   4.67077e-01   4.59664e-01
   4.40426e-01   4.16344e-01   4.93935e-01   4.37024e-01   3.98523e-01   3.80378e-01
   3.84022e-01   4.09155e-01   4.54133e-01   4.93935e-01   5.58966e-01   6.15380e-01
   6.46183e-01   6.39631e-01   5.98708e-01   5.37416e-01   4.81669e-01   4.37102e-01
   4.03676e-01   3.85003e-01   3.80342e-01   3.89757e-01   4.13283e-01   4.37024e-01
   4.81591e-01   5.26693e-01   5.58854e-01   5.67732e-01   5.50190e-01   5.12393e-01
   4.52269e-01   4.22099e-01   3.98655e-01   3.85032e-01   3.79142e-01   3.80600e-01
   3.88696e-01   3.98523e-01   4.21903e-01   4.52137e-01   4.79084e-01   4.93469e-01
   4.90357e-01   4.70884e-01   4.20755e-01   4.01517e-01   3.86757e-01   3.80462e-01
   3.80298e-01   3.80557e-01   3.80480e-01   3.80378e-01   3.86627e-01   4.01387e-01
   4.20670e-01   4.35907e-01   4.40167e-01   4.31343e-01   4.00608e-01   3.87352e-01
   3.77738e-01   3.77336e-01   3.83936e-01   3.89616e-01   3.88695e-01   3.84022e-01
   3.77477e-01   3.77901e-01   3.87493e-01   4.00694e-01   4.08794e-01   4.06671e-01
   3.93679e-01   3.85239e-01   3.78522e-01   3.82377e-01   3.95147e-01   4.08881e-01
   4.13170e-01   4.09155e-01   3.95653e-01   3.83020e-01   3.79164e-01   3.85745e-01
   3.93953e-01   3.96950e-01   3.94788e-01   3.90586e-01   3.87854e-01   3.95159e-01
   4.14534e-01   4.38607e-01   4.53734e-01   4.54133e-01   4.39405e-01   4.15604e-01
   3.96329e-01   3.88924e-01   3.91384e-01   3.95188e-01   3.95604e-01   3.94135e-01
   3.94702e-01   4.05734e-01   4.30522e-01   4.63052e-01   4.88371e-01   4.93935e-01
   4.81669e-01   4.52269e-01   4.20755e-01   4.00608e-01   3.93679e-01   3.94788e-01
   3.94135e-01   3.94058e-01   3.99796e-01   4.15796e-01   4.48714e-01   4.95324e-01
   5.40178e-01   5.58966e-01   5.59044e-01   5.26696e-01   4.79082e-01   4.35908e-01
   4.08832e-01   3.97135e-01   3.94702e-01   3.88630e-01   3.94571e-01   4.15766e-01
   4.56036e-01   5.14528e-01   5.79614e-01   6.15380e-01   6.38068e-01   6.15512e-01
   5.58853e-01   4.93504e-01   4.40392e-01   4.07297e-01   4.05734e-01   3.84609e-01
   3.84571e-01   4.05649e-01   4.48757e-01   5.14570e-01   5.94793e-01   6.46183e-01
   6.96844e-01   6.96882e-01   6.46268e-01   5.67734e-01   4.90582e-01   4.32135e-01
   4.30522e-01   3.91052e-01   3.77401e-01   3.91120e-01   4.30608e-01   4.95465e-01
   5.79615e-01   6.39631e-01   7.13685e-01   7.43497e-01   7.13617e-01   6.39545e-01
   5.50228e-01   4.71511e-01   4.63052e-01   4.08066e-01   3.80118e-01   3.80254e-01
   4.08382e-01   4.63326e-01   5.40291e-01   5.98708e-01   6.80944e-01   7.33168e-01
   7.33033e-01   6.80628e-01   5.98433e-01   5.12578e-01   4.88371e-01   4.28492e-01
   3.91192e-01   3.78485e-01   3.91637e-01   4.29123e-01   4.88770e-01   5.37416e-01
   6.12519e-01   6.71960e-01   6.94786e-01   6.71514e-01   6.11888e-01   5.37017e-01
   5.58745e-01   4.21153e-01   3.27164e-01   2.84392e-01   2.92993e-01   3.52662e-01
   4.63102e-01   5.58745e-01   7.15969e-01   8.53008e-01   9.27835e-01   9.12036e-01
   8.12502e-01   6.63509e-01   5.35623e-01   4.21261e-01   3.35439e-01   2.88047e-01
   2.76943e-01   2.99701e-01   3.60267e-01   4.21153e-01   5.35515e-01   6.51062e-01
   7.32429e-01   7.54349e-01   7.10950e-01   6.14233e-01   4.82967e-01   3.96348e-01
   3.27384e-01   2.88096e-01   2.74189e-01   2.76950e-01   2.98763e-01   3.27164e-01
   3.95957e-01   4.82748e-01   5.59616e-01   5.99328e-01   5.90782e-01   5.36348e-01
   4.34987e-01   3.68011e-01   3.12845e-01   2.84544e-01   2.76874e-01   2.76915e-01
   2.78874e-01   2.84392e-01   3.12569e-01   3.67735e-01   4.34835e-01   4.85056e-01
   4.98787e-01   4.70892e-01   4.15034e-01   3.62022e-01   3.13776e-01   2.91484e-01
   2.92842e-01   2.99536e-01   2.98989e-01   2.92994e-01   2.91791e-01   3.14144e-01
   3.62330e-01   4.15186e-01   4.45623e-01   4.38050e-01   4.23077e-01   3.84025e-01
   3.43090e-01   3.23968e-01   3.32688e-01   3.52226e-01   3.60385e-01   3.52663e-01
   3.33779e-01   3.25456e-01   3.44578e-01   3.85115e-01   4.23513e-01   4.33984e-01
   4.39053e-01   4.18126e-01   3.89784e-01   3.78763e-01   3.98111e-01   4.35541e-01
   4.62589e-01   4.63102e-01   4.37197e-01   4.00591e-01   3.81549e-01   3.92264e-01
   4.19782e-01   4.39567e-01   4.43285e-01   4.34378e-01   4.18324e-01   4.18048e-01
   4.48530e-01   5.01801e-01   5.48071e-01   5.58745e-01   5.35623e-01   4.82967e-01
   4.34988e-01   4.15034e-01   4.23077e-01   4.39053e-01   4.34378e-01   4.34270e-01
   4.36156e-01   4.54914e-01   5.06241e-01   5.89750e-01   6.77808e-01   7.15969e-01
   7.16077e-01   6.50983e-01   5.59570e-01   4.85099e-01   4.45862e-01   4.34715e-01
   4.18324e-01   4.06928e-01   4.18105e-01   4.54864e-01   5.27667e-01   6.41320e-01
   7.76153e-01   8.53008e-01   9.03739e-01   8.53228e-01   7.32383e-01   5.99441e-01
   4.99416e-01   4.39694e-01   4.18048e-01   3.74590e-01   3.74519e-01   4.17896e-01
   5.06310e-01   6.41354e-01   8.12602e-01   9.27835e-01   1.04656e+00   1.04663e+00
   9.27987e-01   7.54391e-01   5.91411e-01   4.72865e-01   4.48530e-01   3.60595e-01
   3.31041e-01   3.60725e-01   4.48682e-01   5.89915e-01   7.75927e-01   9.12036e-01
   1.08738e+00   1.15880e+00   1.08725e+00   9.11884e-01   7.11188e-01   5.37991e-01
   5.01801e-01   3.76375e-01   3.11352e-01   3.11617e-01   3.76971e-01   5.02237e-01
   6.77690e-01   8.12502e-01   1.00751e+00   1.13430e+00   1.13403e+00   1.00691e+00
   8.12066e-01   6.14963e-01   5.48070e-01   4.06242e-01   3.17647e-01   2.88447e-01
   3.18503e-01   4.07383e-01   5.48584e-01   6.63509e-01   8.42906e-01   9.86308e-01
   1.04219e+00   9.85452e-01   8.41765e-01   6.62995e-01   6.00772e-01   3.18177e-01
   1.31797e-01   4.96533e-02   6.53318e-02   1.82164e-01   4.03292e-01   6.00772e-01
   9.24551e-01   1.20812e+00   1.36409e+00   1.33178e+00   1.12340e+00   8.16956e-01
   5.53999e-01   3.18345e-01   1.51512e-01   6.86664e-02   5.05934e-02   8.84831e-02
   1.97772e-01   3.18177e-01   5.53831e-01   7.88846e-01   9.50447e-01   9.93692e-01
   9.07680e-01   7.15183e-01   4.51083e-01   2.67749e-01   1.32202e-01   6.87576e-02
   5.06764e-02   5.46013e-02   8.39378e-02   1.31797e-01   2.66989e-01   4.50677e-01
   6.11868e-01   6.94099e-01   6.76738e-01   5.63755e-01   3.68100e-01   2.15368e-01
   9.57572e-02   4.99486e-02   5.04698e-02   5.45632e-02   5.04592e-02   4.96534e-02
   9.51911e-02   2.14802e-01   3.67805e-01   4.81842e-01   5.11860e-01   4.49605e-01
   3.50631e-01   2.17830e-01   9.73798e-02   5.06185e-02   6.50398e-02   8.82400e-02
   8.45450e-02   6.53319e-02   5.12599e-02   9.81675e-02   2.18471e-01   3.50923e-01
   4.25217e-01   4.07951e-01   3.91670e-01   2.90007e-01   1.75979e-01   1.20014e-01
   1.37508e-01   1.81389e-01   1.98277e-01   1.82164e-01   1.39743e-01   1.23195e-01
   1.79161e-01   2.92242e-01   3.92445e-01   4.20523e-01   4.43436e-01   3.84921e-01
   3.00720e-01   2.54118e-01   2.77993e-01   3.47910e-01   4.02565e-01   4.03293e-01
   3.51157e-01   2.83113e-01   2.59951e-01   3.05839e-01   3.88168e-01   4.44164e-01
   4.56623e-01   4.28618e-01   3.74104e-01   3.48351e-01   3.89766e-01   4.86846e-01
   5.79183e-01   6.00772e-01   5.53999e-01   4.51083e-01   3.68100e-01   3.50631e-01