written on  6Jun2022 at 20:30:17 
12
0
  -2.6988037638089994       0.0000000000000000      -2.6988037638089994       0.0000000000000000       2.6988037638089994       2.6988037638089994       2.6988037638089994       2.6988037638089994       0.0000000000000000    
  -1.1640685757588602       1.1640685757588602      -1.1640685757588602      -1.1640685757588602       1.1640685757588602       1.1640685757588602       1.1640685757588602       1.1640685757588602      -1.1640685757588602    
64
4 4 4
   0.0000000000000000       0.0000000000000000       0.0000000000000000    
   0.0000000000000000       0.0000000000000000      0.25000000000000000    
   0.0000000000000000       0.0000000000000000      0.50000000000000000    
   0.0000000000000000       0.0000000000000000      0.75000000000000000    
   0.0000000000000000      0.25000000000000000       0.0000000000000000    
   0.0000000000000000      0.25000000000000000      0.25000000000000000    
   0.0000000000000000      0.25000000000000000      0.50000000000000000    
   0.0000000000000000      0.25000000000000000      0.75000000000000000    
   0.0000000000000000      0.50000000000000000       0.0000000000000000    
   0.0000000000000000      0.50000000000000000      0.25000000000000000    
   0.0000000000000000      0.50000000000000000      0.50000000000000000    
   0.0000000000000000      0.50000000000000000      0.75000000000000000    
   0.0000000000000000      0.75000000000000000       0.0000000000000000    
   0.0000000000000000      0.75000000000000000      0.25000000000000000    
   0.0000000000000000      0.75000000000000000      0.50000000000000000    
   0.0000000000000000      0.75000000000000000      0.75000000000000000    
  0.25000000000000000       0.0000000000000000       0.0000000000000000    
  0.25000000000000000       0.0000000000000000      0.25000000000000000    
  0.25000000000000000       0.0000000000000000      0.50000000000000000    
  0.25000000000000000       0.0000000000000000      0.75000000000000000    
  0.25000000000000000      0.25000000000000000       0.0000000000000000    
  0.25000000000000000      0.25000000000000000      0.25000000000000000    
  0.25000000000000000      0.25000000000000000      0.50000000000000000    
  0.25000000000000000      0.25000000000000000      0.75000000000000000    
  0.25000000000000000      0.50000000000000000       0.0000000000000000    
  0.25000000000000000      0.50000000000000000      0.25000000000000000    
  0.25000000000000000      0.50000000000000000      0.50000000000000000    
  0.25000000000000000      0.50000000000000000      0.75000000000000000    
  0.25000000000000000      0.75000000000000000       0.0000000000000000    
  0.25000000000000000      0.75000000000000000      0.25000000000000000    
  0.25000000000000000      0.75000000000000000      0.50000000000000000    
  0.25000000000000000      0.75000000000000000      0.75000000000000000    
  0.50000000000000000       0.0000000000000000       0.0000000000000000    
  0.50000000000000000       0.0000000000000000      0.25000000000000000    
  0.50000000000000000       0.0000000000000000      0.50000000000000000    
  0.50000000000000000       0.0000000000000000      0.75000000000000000    
  0.50000000000000000      0.25000000000000000       0.0000000000000000    
  0.50000000000000000      0.25000000000000000      0.25000000000000000    
  0.50000000000000000      0.25000000000000000      0.50000000000000000    
  0.50000000000000000      0.25000000000000000      0.75000000000000000    
  0.50000000000000000      0.50000000000000000       0.0000000000000000    
  0.50000000000000000      0.50000000000000000      0.25000000000000000    
  0.50000000000000000      0.50000000000000000      0.50000000000000000    
  0.50000000000000000      0.50000000000000000      0.75000000000000000    
  0.50000000000000000      0.75000000000000000       0.0000000000000000    
  0.50000000000000000      0.75000000000000000      0.25000000000000000    
  0.50000000000000000      0.75000000000000000      0.50000000000000000    
  0.50000000000000000      0.75000000000000000      0.75000000000000000    
  0.75000000000000000       0.0000000000000000       0.0000000000000000    
  0.75000000000000000       0.0000000000000000      0.25000000000000000    
  0.75000000000000000       0.0000000000000000      0.50000000000000000    
  0.75000000000000000       0.0000000000000000      0.75000000000000000    
  0.75000000000000000      0.25000000000000000       0.0000000000000000    
  0.75000000000000000      0.25000000000000000      0.25000000000000000    
  0.75000000000000000      0.25000000000000000      0.50000000000000000    
  0.75000000000000000      0.25000000000000000      0.75000000000000000    
  0.75000000000000000      0.50000000000000000       0.0000000000000000    
  0.75000000000000000      0.50000000000000000      0.25000000000000000    
  0.75000000000000000      0.50000000000000000      0.50000000000000000    
  0.75000000000000000      0.50000000000000000      0.75000000000000000    
  0.75000000000000000      0.75000000000000000       0.0000000000000000    
  0.75000000000000000      0.75000000000000000      0.25000000000000000    
  0.75000000000000000      0.75000000000000000      0.50000000000000000    
  0.75000000000000000      0.75000000000000000      0.75000000000000000    
8
8
postwann            
1
   12.599083622144221    
1
1
1
1
1
1
1
1
1
1
1
0
1
1
1
1
1
1
1
1
1
1
1
0
1
1
1
1
1
1
1
1
1
1
0
0
1
1
1
1
1
1
1
1
1
1
1
0
1
1
1
1
1
1
1
1
1
1
1
0
1
1
1
1
1
1
1
1
1
1
0
0
1
1
1
1
1
1
1
1
1
1
0
0
1
1
1
1
1
1
1
1
1
1
0
0
1
1
1
1
1
1
1
1
1
1
0
0
1
1
1
1
1
1
1
1
1
1
0
0
1
1
1
1
1
1
1
1
0
0
0
0
1
1
1
1
1
1
1
1
1
1
0
0
1
1
1
1
1
1
1
1
1
1
1
0
1
1
1
1
1
1
1
1
1
1
0
0
1
1
1
1
1
1
1
1
1
1
0
0
1
1
1
1
1
1
1
1
1
1
0
0
1
1
1
1
1
1
1
1
1
1
1
0
1
1
1
1
1
1
1
1
1
1
0
0
1
1
1
1
1
1
1
1
1
1
0
0
1
1
1
1
1
1
1
1
1
1
0
0
1
1
1
1
1
1
1
1
1
1
0
0
1
1
1
1
1
1
1
1
1
1
1
0
1
1
1
1
1
1
1
1
1
1
0
0
1
1
1
1
1
1
1
1
1
1
0
0
1
1
1
1
1
1
1
1
1
1
0
0
1
1
1
1
1
1
1
1
1
1
0
0
1
1
1
1
1
1
1
1
1
1
0
0
1
1
1
1
1
1
1
1
0
0
0
0
1
1
1
1
1
1
1
1
1
1
0
0
1
1
1
1
1
1
1
1
1
1
0
0
1
1
1
1
1
1
1
1
0
0
0
0
1
1
1
1
1
1
1
1
1
1
0
0
1
1
1
1
1
1
1
1
1
1
0
0
1
1
1
1
1
1
1
1
1
1
0
0
1
1
1
1
1
1
1
1
0
0
0
0
1
1
1
1
1
1
1
1
1
1
0
0
1
1
1
1
1
1
1
1
1
1
0
0
1
1
1
1
1
1
1
1
1
1
0
0
1
1
1
1
1
1
1
1
1
1
0
0
1
1
1
1
1
1
1
1
0
0
0
0
1
1
1
1
1
1
1
1
0
0
0
0
1
1
1
1
1
1
1
1
1
1
0
0
1
1
1
1
1
1
1
1
1
1
0
0
1
1
1
1
1
1
1
1
1
1
0
0
1
1
1
1
1
1
1
1
1
1
0
0
1
1
1
1
1
1
1
1
0
0
0
0
1
1
1
1
1
1
1
1
1
1
0
0
1
1
1
1
1
1
1
1
1
1
0
0
1
1
1
1
1
1
1
1
1
1
1
0
1
1
1
1
1
1
1
1
1
1
0
0
1
1
1
1
1
1
1
1
1
1
0
0
1
1
1
1
1
1
1
1
1
1
0
0
1
1
1
1
1
1
1
1
1
1
0
0
1
1
1
1
1
1
1
1
1
1
0
0
1
1
1
1
1
1
1
1
0
0
0
0
1
1
1
1
1
1
1
1
1
1
0
0
1
1
1
1
1
1
1
1
1
1
0
0
1
1
1
1
1
1
1
1
0
0
0
0
1
1
1
1
1
1
1
1
1
1
0
0
1
1
1
1
1
1
1
1
1
1
0
0
1
1
1
1
1
1
1
1
1
1
0
0
1
1
1
1
1
1
1
1
1
1
0
0
1
1
1
1
1
1
1
1
1
1
0
0
1
1
1
1
1
1
1
1
1
1
1
0
11
11
10
11
11
10
10
10
10
10
8
10
11
10
10
10
11
10
10
10
10
11
10
10
10
10
10
8
10
10
8
10
10
10
8
10
10
10
10
8
8
10
10
10
10
8
10
10
11
10
10
10
10
10
8
10
10
8
10
10
10
10
10
11
   1.0000000000000000       0.0000000000000000    
   0.0000000000000000       0.0000000000000000    
   0.0000000000000000       0.0000000000000000    
   0.0000000000000000       0.0000000000000000    
   0.0000000000000000       0.0000000000000000    
   0.0000000000000000       0.0000000000000000    
   0.0000000000000000       0.0000000000000000    
   0.0000000000000000       0.0000000000000000    
   0.0000000000000000       0.0000000000000000    
   0.0000000000000000       0.0000000000000000    
   0.0000000000000000       0.0000000000000000    
   0.0000000000000000       0.0000000000000000    
   0.0000000000000000       0.0000000000000000    
   1.0000000000000000       0.0000000000000000    
   0.0000000000000000       0.0000000000000000    
   0.0000000000000000       0.0000000000000000    
   0.0000000000000000       0.0000000000000000    
   0.0000000000000000       0.0000000000000000    
   0.0000000000000000       0.0000000000000000    
   0.0000000000000000       0.0000000000000000    
   0.0000000000000000       0.0000000000000000    
   0.0000000000000000       0.0000000000000000    
   0.0000000000000000       0.0000000000000000    
   0.0000000000000000       0.0000000000000000    
   0.0000000000000000       0.0000000000000000    
   0.0000000000000000       0.0000000000000000    
   1.0000000000000000       0.0000000000000000    
   0.0000000000000000       0.0000000000000000    
   0.0000000000000000       0.0000000000000000    
   0.0000000000000000       0.0000000000000000    
   0.0000000000000000       0.0000000000000000    
   0.0000000000000000       0.0000000000000000    
   0.0000000000000000       0.0000000000000000    
   0.0000000000000000       0.0000000000000000    
   0.0000000000000000       0.0000000000000000    
   0.0000000000000000       0.0000000000000000    
   0.0000000000000000       0.0000000000000000    
   0.0000000000000000       0.0000000000000000    
   0.0000000000000000       0.0000000000000000    
   1.0000000000000000       0.0000000000000000    
   0.0000000000000000       0.0000000000000000    
   0.0000000000000000       0.0000000000000000    
   0.0000000000000000       0.0000000000000000    
   0.0000000000000000       0.0000000000000000    
   0.0000000000000000       0.0000000000000000    
   0.0000000000000000       0.0000000000000000    
   0.0000000000000000       0.0000000000000000    
   0.0000000000000000       0.0000000000000000    
   0.0000000000000000       0.0000000000000000    
   0.0000000000000000       0.0000000000000000    
   0.0000000000000000       0.0000000000000000    
   0.0000000000000000       0.0000000000000000    
   1.0000000000000000       0.0000000000000000    
   0.0000000000000000       0.0000000000000000    
   0.0000000000000000       0.0000000000000000    
   0.0000000000000000       0.0000000000000000    
   0.0000000000000000       0.0000000000000000    
   0.0000000000000000       0.0000000000000000    
   0.0000000000000000       0.0000000000000000    
   0.0000000000000000       0.0000000000000000    
   0.0000000000000000       0.0000000000000000    
   0.0000000000000000       0.0000000000000000    
   0.0000000000000000       0.0000000000000000    
   0.0000000000000000       0.0000000000000000    
   0.0000000000000000       0.0000000000000000    
   1.0000000000000000       0.0000000000000000    
   0.0000000000000000       0.0000000000000000    
   0.0000000000000000       0.0000000000000000    
   0.0000000000000000       0.0000000000000000    
   0.0000000000000000       0.0000000000000000    
   0.0000000000000000       0.0000000000000000    
   0.0000000000000000       0.0000000000000000    
   0.0000000000000000       0.0000000000000000    
   0.0000000000000000       0.0000000000000000    
   0.0000000000000000       0.0000000000000000    
   0.0000000000000000       0.0000000000000000    
   0.0000000000000000       0.0000000000000000    
   0.0000000000000000       0.0000000000000000    
   1.0000000000000000       0.0000000000000000    
   0.0000000000000000       0.0000000000000000    
   0.0000000000000000       0.0000000000000000    
   0.0000000000000000       0.0000000000000000    
   0.0000000000000000       0.0000000000000000    
   0.0000000000000000       0.0000000000000000    
   0.0000000000000000       0.0000000000000000    
   0.0000000000000000       0.0000000000000000    
   0.0000000000000000       0.0000000000000000    
   0.0000000000000000       0.0000000000000000    
   0.0000000000000000       0.0000000000000000    
   0.0000000000000000       0.0000000000000000    
   0.0000000000000000       0.0000000000000000    
   1.0000000000000000       0.0000000000000000    
   0.0000000000000000       0.0000000000000000    
   0.0000000000000000       0.0000000000000000    
   0.0000000000000000       0.0000000000000000    
   0.0000000000000000       0.0000000000000000    
   1.0000000000000000       0.0000000000000000    
   0.0000000000000000       0.0000000000000000    
   0.0000000000000000       0.0000000000000000    
   0.0000000000000000       0.0000000000000000    
   0.0000000000000000       0.0000000000000000    
   0.0000000000000000       0.0000000000000000    
   0.0000000000000000       0.0000000000000000    
   0.0000000000000000       0.0000000000000000    
   0.0000000000000000       0.0000000000000000    
   0.0000000000000000       0.0000000000000000    
   0.0000000000000000       0.0000000000000000    
   0.0000000000000000       0.0000000000000000    
   0.0000000000000000       0.0000000000000000    
   1.0000000000000000       0.0000000000000000    
   0.0000000000000000       0.0000000000000000    
   0.0000000000000000       0.0000000000000000    
   0.0000000000000000       0.0000000000000000    
   0.0000000000000000       0.0000000000000000    
   0.0000000000000000       0.0000000000000000    
   0.0000000000000000       0.0000000000000000    
   0.0000000000000000       0.0000000000000000    
   0.0000000000000000       0.0000000000000000    
   0.0000000000000000       0.0000000000000000    
   0.0000000000000000       0.0000000000000000    
   0.0000000000000000       0.0000000000000000    
   0.0000000000000000       0.0000000000000000    
   1.0000000000000000       0.0000000000000000    
   0.0000000000000000       0.0000000000000000    
   0.0000000000000000       0.0000000000000000    
   0.0000000000000000       0.0000000000000000    
   0.0000000000000000       0.0000000000000000    
   0.0000000000000000       0.0000000000000000    
   0.0000000000000000       0.0000000000000000    
   0.0000000000000000       0.0000000000000000    
   0.0000000000000000       0.0000000000000000    
   0.0000000000000000       0.0000000000000000    
   0.0000000000000000       0.0000000000000000    
   0.0000000000000000       0.0000000000000000    
   0.0000000000000000       0.0000000000000000    
   1.0000000000000000       0.0000000000000000    
   0.0000000000000000       0.0000000000000000    
   0.0000000000000000       0.0000000000000000    
   0.0000000000000000       0.0000000000000000    
   0.0000000000000000       0.0000000000000000    
   0.0000000000000000       0.0000000000000000    
   0.0000000000000000       0.0000000000000000    
   0.0000000000000000       0.0000000000000000    
   0.0000000000000000       0.0000000000000000    
   0.0000000000000000       0.0000000000000000    
   0.0000000000000000       0.0000000000000000    
   0.0000000000000000       0.0000000000000000    
   0.0000000000000000       0.0000000000000000    
   1.0000000000000000       0.0000000000000000    
   0.0000000000000000       0.0000000000000000    
   0.0000000000000000       0.0000000000000000    
   0.0000000000000000       0.0000000000000000    
   0.0000000000000000       0.0000000000000000    
   0.0000000000000000       0.0000000000000000    
   0.0000000000000000       0.0000000000000000    
   0.0000000000000000       0.0000000000000000    
   0.0000000000000000       0.0000000000000000    
   0.0000000000000000       0.0000000000000000    
   0.0000000000000000       0.0000000000000000    
   0.0000000000000000       0.0000000000000000    
   0.0000000000000000       0.0000000000000000    
   1.0000000000000000       0.0000000000000000    
   0.0000000000000000       0.0000000000000000    
   0.0000000000000000       0.0000000000000000    
   0.0000000000000000       0.0000000000000000    
   0.0000000000000000       0.0000000000000000    
   0.0000000000000000       0.0000000000000000    
   0.0000000000000000       0.0000000000000000    
   0.0000000000000000       0.0000000000000000    
   0.0000000000000000       0.0000000000000000    
   0.0000000000000000       0.0000000000000000    
   0.0000000000000000       0.0000000000000000    
   0.0000000000000000       0.0000000000000000    
   0.0000000000000000       0.0000000000000000    
   1.0000000000000000       0.0000000000000000    
   0.0000000000000000       0.0000000000000000    
   0.0000000000000000       0.0000000000000000    
   0.0000000000000000       0.0000000000000000    
   0.0000000000000000       0.0000000000000000    
   0.0000000000000000       0.0000000000000000    
   0.0000000000000000       0.0000000000000000    
   0.0000000000000000       0.0000000000000000    
   0.0000000000000000       0.0000000000000000    
   0.0000000000000000       0.0000000000000000    
   0.0000000000000000       0.0000000000000000    
   0.0000000000000000       0.0000000000000000    
   0.0000000000000000       0.0000000000000000    
  0.17604350175579853      0.90470018794780716    
 -0.49823922712700184E-07  0.38481561319313642E-07
  0.97866506729603893E-07 -0.83817315543608983E-07
  0.38797713259512817       0.0000000000000000    
   0.0000000000000000       0.0000000000000000    
   1.0000000000000000       0.0000000000000000    
   0.0000000000000000       0.0000000000000000    
   0.0000000000000000       0.0000000000000000    
   0.0000000000000000       0.0000000000000000    
   0.0000000000000000       0.0000000000000000    
   0.0000000000000000       0.0000000000000000    
   0.0000000000000000       0.0000000000000000    
   0.0000000000000000       0.0000000000000000    
   0.0000000000000000       0.0000000000000000    
   0.0000000000000000       0.0000000000000000    
   0.0000000000000000       0.0000000000000000    
   0.0000000000000000       0.0000000000000000    
   0.0000000000000000       0.0000000000000000    
   1.0000000000000000       0.0000000000000000    
   0.0000000000000000       0.0000000000000000    
   0.0000000000000000       0.0000000000000000    
   0.0000000000000000       0.0000000000000000    
   0.0000000000000000       0.0000000000000000    
   0.0000000000000000       0.0000000000000000    
   0.0000000000000000       0.0000000000000000    
   0.0000000000000000       0.0000000000000000    
   0.0000000000000000       0.0000000000000000    
   0.0000000000000000       0.0000000000000000    
   0.0000000000000000       0.0000000000000000    
   0.0000000000000000       0.0000000000000000    
   0.0000000000000000       0.0000000000000000    
   1.0000000000000000       0.0000000000000000    
   0.0000000000000000       0.0000000000000000    
   0.0000000000000000       0.0000000000000000    
   0.0000000000000000       0.0000000000000000    
   0.0000000000000000       0.0000000000000000    
   0.0000000000000000       0.0000000000000000    
   0.0000000000000000       0.0000000000000000    
   0.0000000000000000       0.0000000000000000    
   0.0000000000000000       0.0000000000000000    
   0.0000000000000000       0.0000000000000000    
   0.0000000000000000       0.0000000000000000    
   0.0000000000000000       0.0000000000000000    
   0.0000000000000000       0.0000000000000000    
   1.0000000000000000       0.0000000000000000    
   0.0000000000000000       0.0000000000000000    
   0.0000000000000000       0.0000000000000000    
   0.0000000000000000       0.0000000000000000    
   0.0000000000000000       0.0000000000000000    
   0.0000000000000000       0.0000000000000000    
   0.0000000000000000       0.0000000000000000    
   0.0000000000000000       0.0000000000000000    
   0.0000000000000000       0.0000000000000000    
   0.0000000000000000       0.0000000000000000    
   0.0000000000000000       0.0000000000000000    
   0.0000000000000000       0.0000000000000000    
   0.0000000000000000       0.0000000000000000    
   1.0000000000000000       0.0000000000000000    
   0.0000000000000000       0.0000000000000000    
   0.0000000000000000       0.0000000000000000    
   0.0000000000000000       0.0000000000000000    
   0.0000000000000000       0.0000000000000000    
   0.0000000000000000       0.0000000000000000    
   0.0000000000000000       0.0000000000000000    
   0.0000000000000000       0.0000000000000000    
   0.0000000000000000       0.0000000000000000    
   0.0000000000000000       0.0000000000000000    
   0.0000000000000000       0.0000000000000000    
   0.0000000000000000       0.0000000000000000    
   0.0000000000000000       0.0000000000000000    
   1.0000000000000000       0.0000000000000000    
   0.0000000000000000       0.0000000000000000    
   0.0000000000000000       0.0000000000000000    
   0.0000000000000000       0.0000000000000000    
   0.0000000000000000       0.0000000000000000    
   0.0000000000000000       0.0000000000000000    
   0.0000000000000000       0.0000000000000000    
   0.0000000000000000       0.0000000000000000    
   0.0000000000000000       0.0000000000000000    
   0.0000000000000000       0.0000000000000000    
   0.0000000000000000       0.0000000000000000    
   0.0000000000000000       0.0000000000000000    
   0.0000000000000000       0.0000000000000000    
   1.0000000000000000       0.0000000000000000    
   0.0000000000000000       0.0000000000000000    
   0.0000000000000000       0.0000000000000000    
   0.0000000000000000       0.0000000000000000    
   0.0000000000000000       0.0000000000000000    
   0.0000000000000000       0.0000000000000000    
   0.0000000000000000       0.0000000000000000    
   0.0000000000000000       0.0000000000000000    
   0.0000000000000000       0.0000000000000000    
   0.0000000000000000       0.0000000000000000    
   0.0000000000000000       0.0000000000000000    
   0.0000000000000000       0.0000000000000000    
   0.0000000000000000       0.0000000000000000    
  0.26196516464971098      0.96507732980836214    
  0.20784737369308915E-07  0.27443678348143959E-07
  0.99849790547274198E-07   0.0000000000000000    
   0.0000000000000000       0.0000000000000000    
   0.0000000000000000       0.0000000000000000    
   1.0000000000000000       0.0000000000000000    
   0.0000000000000000       0.0000000000000000    
   0.0000000000000000       0.0000000000000000    
   0.0000000000000000       0.0000000000000000    
   0.0000000000000000       0.0000000000000000    
   0.0000000000000000       0.0000000000000000    
   0.0000000000000000       0.0000000000000000    
   0.0000000000000000       0.0000000000000000    
   0.0000000000000000       0.0000000000000000    
   0.0000000000000000       0.0000000000000000    
   0.0000000000000000       0.0000000000000000    
   0.0000000000000000       0.0000000000000000    
   0.0000000000000000       0.0000000000000000    
   1.0000000000000000       0.0000000000000000    
   0.0000000000000000       0.0000000000000000    
   0.0000000000000000       0.0000000000000000    
   0.0000000000000000       0.0000000000000000    
   0.0000000000000000       0.0000000000000000    
   0.0000000000000000       0.0000000000000000    
   0.0000000000000000       0.0000000000000000    
   0.0000000000000000       0.0000000000000000    
   0.0000000000000000       0.0000000000000000    
   0.0000000000000000       0.0000000000000000    
   0.0000000000000000       0.0000000000000000    
   0.0000000000000000       0.0000000000000000    
   0.0000000000000000       0.0000000000000000    
   1.0000000000000000       0.0000000000000000    
   0.0000000000000000       0.0000000000000000    
   0.0000000000000000       0.0000000000000000    
   0.0000000000000000       0.0000000000000000    
   0.0000000000000000       0.0000000000000000    
   0.0000000000000000       0.0000000000000000    
   0.0000000000000000       0.0000000000000000    
   0.0000000000000000       0.0000000000000000    
   0.0000000000000000       0.0000000000000000    
   0.0000000000000000       0.0000000000000000    
   0.0000000000000000       0.0000000000000000    
   0.0000000000000000       0.0000000000000000    
   0.0000000000000000       0.0000000000000000    
   1.0000000000000000       0.0000000000000000    
   0.0000000000000000       0.0000000000000000    
   0.0000000000000000       0.0000000000000000    
   0.0000000000000000       0.0000000000000000    
   0.0000000000000000       0.0000000000000000    
   0.0000000000000000       0.0000000000000000    
   0.0000000000000000       0.0000000000000000    
   0.0000000000000000       0.0000000000000000    
   0.0000000000000000       0.0000000000000000    
   0.0000000000000000       0.0000000000000000    
   0.0000000000000000       0.0000000000000000    
   0.0000000000000000       0.0000000000000000    
   0.0000000000000000       0.0000000000000000    
   1.0000000000000000       0.0000000000000000    
   0.0000000000000000       0.0000000000000000    
   0.0000000000000000       0.0000000000000000    
   0.0000000000000000       0.0000000000000000    
   0.0000000000000000       0.0000000000000000    
   0.0000000000000000       0.0000000000000000    
   0.0000000000000000       0.0000000000000000    
   0.0000000000000000       0.0000000000000000    
   0.0000000000000000       0.0000000000000000    
   0.0000000000000000       0.0000000000000000    
   0.0000000000000000       0.0000000000000000    
   0.0000000000000000       0.0000000000000000    
   0.0000000000000000       0.0000000000000000    
   1.0000000000000000       0.0000000000000000    
   0.0000000000000000       0.0000000000000000    
   0.0000000000000000       0.0000000000000000    
   0.0000000000000000       0.0000000000000000    
   0.0000000000000000       0.0000000000000000    
   0.0000000000000000       0.0000000000000000    
   0.0000000000000000       0.0000000000000000    
   0.0000000000000000       0.0000000000000000    
   0.0000000000000000       0.0000000000000000    
   0.0000000000000000       0.0000000000000000    
   0.0000000000000000       0.0000000000000000    
   0.0000000000000000       0.0000000000000000    
   0.0000000000000000       0.0000000000000000    
   1.0000000000000000       0.0000000000000000    
   0.0000000000000000       0.0000000000000000    
   0.0000000000000000       0.0000000000000000    
   0.0000000000000000       0.0000000000000000    
   0.0000000000000000       0.0000000000000000    
   0.0000000000000000       0.0000000000000000    
   0.0000000000000000       0.0000000000000000    
   0.0000000000000000       0.0000000000000000    
   0.0000000000000000       0.0000000000000000    
   0.0000000000000000       0.0000000000000000    
   0.0000000000000000       0.0000000000000000    
   0.0000000000000000       0.0000000000000000    
   0.0000000000000000       0.0000000000000000    
  0.91807726054117889      0.81288450907283608E-01
 -0.52290724781599499E-07 -0.24443415047912328E-06
 -0.62215756602334599E-07  0.27952874907725240E-06
 -0.38797723055116706       0.0000000000000000    
   0.0000000000000000       0.0000000000000000    
   1.0000000000000000       0.0000000000000000    
   0.0000000000000000       0.0000000000000000    
   0.0000000000000000       0.0000000000000000    
   0.0000000000000000       0.0000000000000000    
   0.0000000000000000       0.0000000000000000    
   0.0000000000000000       0.0000000000000000    
   0.0000000000000000       0.0000000000000000    
   0.0000000000000000       0.0000000000000000    
   0.0000000000000000       0.0000000000000000    
   0.0000000000000000       0.0000000000000000    
   0.0000000000000000       0.0000000000000000    
   0.0000000000000000       0.0000000000000000    
   0.0000000000000000       0.0000000000000000    
   1.0000000000000000       0.0000000000000000    
   0.0000000000000000       0.0000000000000000    
   0.0000000000000000       0.0000000000000000    
   0.0000000000000000       0.0000000000000000    
   0.0000000000000000       0.0000000000000000    
   0.0000000000000000       0.0000000000000000    
   0.0000000000000000       0.0000000000000000    
   0.0000000000000000       0.0000000000000000    
   0.0000000000000000       0.0000000000000000    
   0.0000000000000000       0.0000000000000000    
   0.0000000000000000       0.0000000000000000    
   0.0000000000000000       0.0000000000000000    
   0.0000000000000000       0.0000000000000000    
   1.0000000000000000       0.0000000000000000    
   0.0000000000000000       0.0000000000000000    
   0.0000000000000000       0.0000000000000000    
   0.0000000000000000       0.0000000000000000    
   0.0000000000000000       0.0000000000000000    
   0.0000000000000000       0.0000000000000000    
   0.0000000000000000       0.0000000000000000    
   0.0000000000000000       0.0000000000000000    
   0.0000000000000000       0.0000000000000000    
   0.0000000000000000       0.0000000000000000    
   0.0000000000000000       0.0000000000000000    
   0.0000000000000000       0.0000000000000000    
   0.0000000000000000       0.0000000000000000    
   1.0000000000000000       0.0000000000000000    
   0.0000000000000000       0.0000000000000000    
   0.0000000000000000       0.0000000000000000    
   0.0000000000000000       0.0000000000000000    
   0.0000000000000000       0.0000000000000000    
   0.0000000000000000       0.0000000000000000    
   0.0000000000000000       0.0000000000000000    
   0.0000000000000000       0.0000000000000000    
   0.0000000000000000       0.0000000000000000    
   0.0000000000000000       0.0000000000000000    
   0.0000000000000000       0.0000000000000000    
   0.0000000000000000       0.0000000000000000    
   0.0000000000000000       0.0000000000000000    
   1.0000000000000000       0.0000000000000000    
   0.0000000000000000       0.0000000000000000    
   0.0000000000000000       0.0000000000000000    
   0.0000000000000000       0.0000000000000000    
   0.0000000000000000       0.0000000000000000    
   0.0000000000000000       0.0000000000000000    
   0.0000000000000000       0.0000000000000000    
   0.0000000000000000       0.0000000000000000    
   0.0000000000000000       0.0000000000000000    
   0.0000000000000000       0.0000000000000000    
   0.0000000000000000       0.0000000000000000    
   0.0000000000000000       0.0000000000000000    
   0.0000000000000000       0.0000000000000000    
   1.0000000000000000       0.0000000000000000    
   0.0000000000000000       0.0000000000000000    
   0.0000000000000000       0.0000000000000000    
   0.0000000000000000       0.0000000000000000    
   0.0000000000000000       0.0000000000000000    
   0.0000000000000000       0.0000000000000000    
   0.0000000000000000       0.0000000000000000    
   0.0000000000000000       0.0000000000000000    
   0.0000000000000000       0.0000000000000000    
   0.0000000000000000       0.0000000000000000    
   0.0000000000000000       0.0000000000000000    
   0.0000000000000000       0.0000000000000000    
   0.0000000000000000       0.0000000000000000    
   1.0000000000000000       0.0000000000000000    
   0.0000000000000000       0.0000000000000000    
   0.0000000000000000       0.0000000000000000    
   0.0000000000000000       0.0000000000000000    
   0.0000000000000000       0.0000000000000000    
   0.0000000000000000       0.0000000000000000    
   0.0000000000000000       0.0000000000000000    
   0.0000000000000000       0.0000000000000000    
   0.0000000000000000       0.0000000000000000    
   0.0000000000000000       0.0000000000000000    
   0.0000000000000000       0.0000000000000000    
   0.0000000000000000       0.0000000000000000    
   0.0000000000000000       0.0000000000000000    
 -0.83946654236943519     -0.38048603210060955    
  0.49478193265942797E-06  0.17872820341763744E-06
 -0.24347037843931744E-06 -0.36162694410219534E-06
 -0.38797719471403486       0.0000000000000000    
   0.0000000000000000       0.0000000000000000    
   1.0000000000000000       0.0000000000000000    
   0.0000000000000000       0.0000000000000000    
   0.0000000000000000       0.0000000000000000    
   0.0000000000000000       0.0000000000000000    
   0.0000000000000000       0.0000000000000000    
   0.0000000000000000       0.0000000000000000    
   0.0000000000000000       0.0000000000000000    
   0.0000000000000000       0.0000000000000000    
   0.0000000000000000       0.0000000000000000    
   0.0000000000000000       0.0000000000000000    
   0.0000000000000000       0.0000000000000000    
   0.0000000000000000       0.0000000000000000    
   0.0000000000000000       0.0000000000000000    
   1.0000000000000000       0.0000000000000000    
   0.0000000000000000       0.0000000000000000    
   0.0000000000000000       0.0000000000000000    
   0.0000000000000000       0.0000000000000000    
   0.0000000000000000       0.0000000000000000    
   0.0000000000000000       0.0000000000000000    
   0.0000000000000000       0.0000000000000000    
   0.0000000000000000       0.0000000000000000    
   0.0000000000000000       0.0000000000000000    
   0.0000000000000000       0.0000000000000000    
   0.0000000000000000       0.0000000000000000    
   0.0000000000000000       0.0000000000000000    
   0.0000000000000000       0.0000000000000000    
   1.0000000000000000       0.0000000000000000    
   0.0000000000000000       0.0000000000000000    
   0.0000000000000000       0.0000000000000000    
   0.0000000000000000       0.0000000000000000    
   0.0000000000000000       0.0000000000000000    
   0.0000000000000000       0.0000000000000000    
   0.0000000000000000       0.0000000000000000    
   0.0000000000000000       0.0000000000000000    
   0.0000000000000000       0.0000000000000000    
   0.0000000000000000       0.0000000000000000    
   0.0000000000000000       0.0000000000000000    
   0.0000000000000000       0.0000000000000000    
   0.0000000000000000       0.0000000000000000    
   1.0000000000000000       0.0000000000000000    
   0.0000000000000000       0.0000000000000000    
   0.0000000000000000       0.0000000000000000    
   0.0000000000000000       0.0000000000000000    
   0.0000000000000000       0.0000000000000000    
   0.0000000000000000       0.0000000000000000    
   0.0000000000000000       0.0000000000000000    
   0.0000000000000000       0.0000000000000000    
   0.0000000000000000       0.0000000000000000    
   0.0000000000000000       0.0000000000000000    
   0.0000000000000000       0.0000000000000000    
   0.0000000000000000       0.0000000000000000    
   0.0000000000000000       0.0000000000000000    
   1.0000000000000000       0.0000000000000000    
   0.0000000000000000       0.0000000000000000    
   0.0000000000000000       0.0000000000000000    
   0.0000000000000000       0.0000000000000000    
   0.0000000000000000       0.0000000000000000    
   0.0000000000000000       0.0000000000000000    
   0.0000000000000000       0.0000000000000000    
   0.0000000000000000       0.0000000000000000    
   0.0000000000000000       0.0000000000000000    
   0.0000000000000000       0.0000000000000000    
   0.0000000000000000       0.0000000000000000    
   0.0000000000000000       0.0000000000000000    
   0.0000000000000000       0.0000000000000000    
   1.0000000000000000       0.0000000000000000    
   0.0000000000000000       0.0000000000000000    
   0.0000000000000000       0.0000000000000000    
   0.0000000000000000       0.0000000000000000    
   0.0000000000000000       0.0000000000000000    
   0.0000000000000000       0.0000000000000000    
   0.0000000000000000       0.0000000000000000    
   0.0000000000000000       0.0000000000000000    
   0.0000000000000000       0.0000000000000000    
   0.0000000000000000       0.0000000000000000    
   0.0000000000000000       0.0000000000000000    
   0.0000000000000000       0.0000000000000000    
   0.0000000000000000       0.0000000000000000    
  0.80074525764067117     -0.74954922251576211E-01
  0.22300307193929408     -0.55087060359205298    
 -0.90203664376187995E-08  0.20214361742450873E-08
 -0.62309794970489097E-08  0.50560798664955799E-09
   0.0000000000000000       0.0000000000000000    
   0.0000000000000000       0.0000000000000000    
   0.0000000000000000       0.0000000000000000    
   0.0000000000000000       0.0000000000000000    
   0.0000000000000000       0.0000000000000000    
   0.0000000000000000       0.0000000000000000    
   0.0000000000000000       0.0000000000000000    
   0.0000000000000000       0.0000000000000000    
  0.55122284344669636      0.22213097230862230    
 -0.61004750149083664      0.52407371039630746    
 -0.70041311222231715E-09 -0.75878246262904235E-09
  0.19603786821405235E-08  0.74922492735931023E-09
   0.0000000000000000       0.0000000000000000    
   0.0000000000000000       0.0000000000000000    
   1.0000000000000000       0.0000000000000000    
   0.0000000000000000       0.0000000000000000    
   0.0000000000000000       0.0000000000000000    
   0.0000000000000000       0.0000000000000000    
   0.0000000000000000       0.0000000000000000    
   0.0000000000000000       0.0000000000000000    
   0.0000000000000000       0.0000000000000000    
   0.0000000000000000       0.0000000000000000    
   0.0000000000000000       0.0000000000000000    
   0.0000000000000000       0.0000000000000000    
   0.0000000000000000       0.0000000000000000    
   0.0000000000000000       0.0000000000000000    
   0.0000000000000000       0.0000000000000000    
   1.0000000000000000       0.0000000000000000    
   0.0000000000000000       0.0000000000000000    
   0.0000000000000000       0.0000000000000000    
   0.0000000000000000       0.0000000000000000    
   0.0000000000000000       0.0000000000000000    
   0.0000000000000000       0.0000000000000000    
   0.0000000000000000       0.0000000000000000    
   0.0000000000000000       0.0000000000000000    
   0.0000000000000000       0.0000000000000000    
   0.0000000000000000       0.0000000000000000    
   0.0000000000000000       0.0000000000000000    
   0.0000000000000000       0.0000000000000000    
   0.0000000000000000       0.0000000000000000    
   1.0000000000000000       0.0000000000000000    
   0.0000000000000000       0.0000000000000000    
   0.0000000000000000       0.0000000000000000    
   0.0000000000000000       0.0000000000000000    
   0.0000000000000000       0.0000000000000000    
   0.0000000000000000       0.0000000000000000    
   0.0000000000000000       0.0000000000000000    
   0.0000000000000000       0.0000000000000000    
   0.0000000000000000       0.0000000000000000    
   0.0000000000000000       0.0000000000000000    
   0.0000000000000000       0.0000000000000000    
   0.0000000000000000       0.0000000000000000    
   0.0000000000000000       0.0000000000000000    
   1.0000000000000000       0.0000000000000000    
   0.0000000000000000       0.0000000000000000    
   0.0000000000000000       0.0000000000000000    
   0.0000000000000000       0.0000000000000000    
   0.0000000000000000       0.0000000000000000    
   0.0000000000000000       0.0000000000000000    
   0.0000000000000000       0.0000000000000000    
   0.0000000000000000       0.0000000000000000    
   0.0000000000000000       0.0000000000000000    
   0.0000000000000000       0.0000000000000000    
   0.0000000000000000       0.0000000000000000    
   0.0000000000000000       0.0000000000000000    
   0.0000000000000000       0.0000000000000000    
   1.0000000000000000       0.0000000000000000    
   0.0000000000000000       0.0000000000000000    
   0.0000000000000000       0.0000000000000000    
   0.0000000000000000       0.0000000000000000    
   0.0000000000000000       0.0000000000000000    
   0.0000000000000000       0.0000000000000000    
   0.0000000000000000       0.0000000000000000    
   0.0000000000000000       0.0000000000000000    
   0.0000000000000000       0.0000000000000000    
   0.0000000000000000       0.0000000000000000    
   0.0000000000000000       0.0000000000000000    
   0.0000000000000000       0.0000000000000000    
   0.0000000000000000       0.0000000000000000    
  0.43524832208503350     -0.78914834631213404    
  0.36428665014088174     -0.65937220103997690E-01
 -0.35550981664451716E-07  0.71884956436265515E-08
  0.21749784644269865     -0.58702572020867844E-01
 -0.33648335269691408E-08 -0.22537692992791708E-08
   0.0000000000000000       0.0000000000000000    
   0.0000000000000000       0.0000000000000000    
   0.0000000000000000       0.0000000000000000    
   0.0000000000000000       0.0000000000000000    
   0.0000000000000000       0.0000000000000000    
   0.0000000000000000       0.0000000000000000    
   0.0000000000000000       0.0000000000000000    
  0.20460283775596710E-06 -0.37944531146704540E-06
 -0.14372467053173277E-05  0.24290250149936770E-06
 -0.96303306050335868     -0.12744995642648321    
  0.50522164693500590E-06 -0.14622287851814732E-06
  0.23377670383910376     -0.40893590255179184E-01
   0.0000000000000000       0.0000000000000000    
   0.0000000000000000       0.0000000000000000    
   0.0000000000000000       0.0000000000000000    
   0.0000000000000000       0.0000000000000000    
   0.0000000000000000       0.0000000000000000    
   0.0000000000000000       0.0000000000000000    
   0.0000000000000000       0.0000000000000000    
  0.13610743491169550     -0.24677631174769027    
 -0.88124882691686524      0.15950933670456685    
  0.15440140039760058E-05  0.18993437413088183E-06
  0.33239301534385329     -0.89712752893427367E-01
 -0.40365826543520458E-06  0.57317477191337536E-07
   0.0000000000000000       0.0000000000000000    
   0.0000000000000000       0.0000000000000000    
   1.0000000000000000       0.0000000000000000    
   0.0000000000000000       0.0000000000000000    
   0.0000000000000000       0.0000000000000000    
   0.0000000000000000       0.0000000000000000    
   0.0000000000000000       0.0000000000000000    
   0.0000000000000000       0.0000000000000000    
   0.0000000000000000       0.0000000000000000    
   0.0000000000000000       0.0000000000000000    
   0.0000000000000000       0.0000000000000000    
   0.0000000000000000       0.0000000000000000    
   0.0000000000000000       0.0000000000000000    
   0.0000000000000000       0.0000000000000000    
   0.0000000000000000       0.0000000000000000    
   1.0000000000000000       0.0000000000000000    
   0.0000000000000000       0.0000000000000000    
   0.0000000000000000       0.0000000000000000    
   0.0000000000000000       0.0000000000000000    
   0.0000000000000000       0.0000000000000000    
   0.0000000000000000       0.0000000000000000    
   0.0000000000000000       0.0000000000000000    
   0.0000000000000000       0.0000000000000000    
   0.0000000000000000       0.0000000000000000    
   0.0000000000000000       0.0000000000000000    
   0.0000000000000000       0.0000000000000000    
   0.0000000000000000       0.0000000000000000    
   0.0000000000000000       0.0000000000000000    
   1.0000000000000000       0.0000000000000000    
   0.0000000000000000       0.0000000000000000    
   0.0000000000000000       0.0000000000000000    
   0.0000000000000000       0.0000000000000000    
   0.0000000000000000       0.0000000000000000    
   0.0000000000000000       0.0000000000000000    
   0.0000000000000000       0.0000000000000000    
   0.0000000000000000       0.0000000000000000    
   0.0000000000000000       0.0000000000000000    
   0.0000000000000000       0.0000000000000000    
   0.0000000000000000       0.0000000000000000    
   0.0000000000000000       0.0000000000000000    
   0.0000000000000000       0.0000000000000000    
   1.0000000000000000       0.0000000000000000    
   0.0000000000000000       0.0000000000000000    
   0.0000000000000000       0.0000000000000000    
   0.0000000000000000       0.0000000000000000    
   0.0000000000000000       0.0000000000000000    
   0.0000000000000000       0.0000000000000000    
   0.0000000000000000       0.0000000000000000    
   0.0000000000000000       0.0000000000000000    
   0.0000000000000000       0.0000000000000000    
   0.0000000000000000       0.0000000000000000    
   0.0000000000000000       0.0000000000000000    
   0.0000000000000000       0.0000000000000000    
   0.0000000000000000       0.0000000000000000    
   1.0000000000000000       0.0000000000000000    
   0.0000000000000000       0.0000000000000000    
   0.0000000000000000       0.0000000000000000    
   0.0000000000000000       0.0000000000000000    
   0.0000000000000000       0.0000000000000000    
   0.0000000000000000       0.0000000000000000    
   0.0000000000000000       0.0000000000000000    
   0.0000000000000000       0.0000000000000000    
   0.0000000000000000       0.0000000000000000    
   0.0000000000000000       0.0000000000000000    
   0.0000000000000000       0.0000000000000000    
   0.0000000000000000       0.0000000000000000    
   0.0000000000000000       0.0000000000000000    
  0.97245772720671897     -0.23307931867916193    
  0.35322100308954123E-08 -0.34801139088396130E-09
 -0.98172461928088195E-16  0.14994142821582142E-14
 -0.59863021852575274E-08  0.50571970497922504E-08
 -0.48360265185884305E-10 -0.40555818483990263E-09
   0.0000000000000000       0.0000000000000000    
   0.0000000000000000       0.0000000000000000    
   0.0000000000000000       0.0000000000000000    
   0.0000000000000000       0.0000000000000000    
   0.0000000000000000       0.0000000000000000    
   0.0000000000000000       0.0000000000000000    
   0.0000000000000000       0.0000000000000000    
  0.12450284637644662E-14 -0.13966182048607547E-14
 -0.37906060941798670E-07  0.58141382114325678E-07
 -0.46358003961144667     -0.88605504731582152    
 -0.50346617542566365E-08  0.35947304669130098E-08
 -0.28935734861219918E-07 -0.18031742595547839E-07
   0.0000000000000000       0.0000000000000000    
   0.0000000000000000       0.0000000000000000    
   0.0000000000000000       0.0000000000000000    
   0.0000000000000000       0.0000000000000000    
   0.0000000000000000       0.0000000000000000    
   0.0000000000000000       0.0000000000000000    
   0.0000000000000000       0.0000000000000000    
 -0.41103941107210250E-09 -0.27702153879636996E-08
  0.87251496289770438E-02  0.84966597024277335    
  0.67504163386137958E-07  0.36942762639003269E-07
 -0.17941625114823111E-08  0.72791182356852001E-08
 -0.52699994016284268      0.16207215791527948E-01
   0.0000000000000000       0.0000000000000000    
   0.0000000000000000       0.0000000000000000    
   1.0000000000000000       0.0000000000000000    
   0.0000000000000000       0.0000000000000000    
   0.0000000000000000       0.0000000000000000    
   0.0000000000000000       0.0000000000000000    
   0.0000000000000000       0.0000000000000000    
   0.0000000000000000       0.0000000000000000    
   0.0000000000000000       0.0000000000000000    
   0.0000000000000000       0.0000000000000000    
   0.0000000000000000       0.0000000000000000    
   0.0000000000000000       0.0000000000000000    
   0.0000000000000000       0.0000000000000000    
   0.0000000000000000       0.0000000000000000    
   0.0000000000000000       0.0000000000000000    
   1.0000000000000000       0.0000000000000000    
   0.0000000000000000       0.0000000000000000    
   0.0000000000000000       0.0000000000000000    
   0.0000000000000000       0.0000000000000000    
   0.0000000000000000       0.0000000000000000    
   0.0000000000000000       0.0000000000000000    
   0.0000000000000000       0.0000000000000000    
   0.0000000000000000       0.0000000000000000    
   0.0000000000000000       0.0000000000000000    
   0.0000000000000000       0.0000000000000000    
   0.0000000000000000       0.0000000000000000    
   0.0000000000000000       0.0000000000000000    
   0.0000000000000000       0.0000000000000000    
   1.0000000000000000       0.0000000000000000    
   0.0000000000000000       0.0000000000000000    
   0.0000000000000000       0.0000000000000000    
   0.0000000000000000       0.0000000000000000    
   0.0000000000000000       0.0000000000000000    
   0.0000000000000000       0.0000000000000000    
   0.0000000000000000       0.0000000000000000    
   0.0000000000000000       0.0000000000000000    
   0.0000000000000000       0.0000000000000000    
   0.0000000000000000       0.0000000000000000    
   0.0000000000000000       0.0000000000000000    
   0.0000000000000000       0.0000000000000000    
   0.0000000000000000       0.0000000000000000    
   1.0000000000000000       0.0000000000000000    
   0.0000000000000000       0.0000000000000000    
   0.0000000000000000       0.0000000000000000    
   0.0000000000000000       0.0000000000000000    
   0.0000000000000000       0.0000000000000000    
   0.0000000000000000       0.0000000000000000    
   0.0000000000000000       0.0000000000000000    
   0.0000000000000000       0.0000000000000000    
   0.0000000000000000       0.0000000000000000    
   0.0000000000000000       0.0000000000000000    
   0.0000000000000000       0.0000000000000000    
   0.0000000000000000       0.0000000000000000    
   0.0000000000000000       0.0000000000000000    
   1.0000000000000000       0.0000000000000000    
   0.0000000000000000       0.0000000000000000    
   0.0000000000000000       0.0000000000000000    
   0.0000000000000000       0.0000000000000000    
   0.0000000000000000       0.0000000000000000    
   0.0000000000000000       0.0000000000000000    
   0.0000000000000000       0.0000000000000000    
   0.0000000000000000       0.0000000000000000    
   0.0000000000000000       0.0000000000000000    
   0.0000000000000000       0.0000000000000000    
   0.0000000000000000       0.0000000000000000    
   0.0000000000000000       0.0000000000000000    
   0.0000000000000000       0.0000000000000000    
   1.0000000000000000       0.0000000000000000    
   0.0000000000000000       0.0000000000000000    
   0.0000000000000000       0.0000000000000000    
   0.0000000000000000       0.0000000000000000    
   0.0000000000000000       0.0000000000000000    
   0.0000000000000000       0.0000000000000000    
   0.0000000000000000       0.0000000000000000    
   0.0000000000000000       0.0000000000000000    
   0.0000000000000000       0.0000000000000000    
   0.0000000000000000       0.0000000000000000    
   0.0000000000000000       0.0000000000000000    
   0.0000000000000000       0.0000000000000000    
   0.0000000000000000       0.0000000000000000    
   1.0000000000000000       0.0000000000000000    
   0.0000000000000000       0.0000000000000000    
   0.0000000000000000       0.0000000000000000    
   0.0000000000000000       0.0000000000000000    
   0.0000000000000000       0.0000000000000000    
   0.0000000000000000       0.0000000000000000    
   0.0000000000000000       0.0000000000000000    
   0.0000000000000000       0.0000000000000000    
   0.0000000000000000       0.0000000000000000    
   0.0000000000000000       0.0000000000000000    
   0.0000000000000000       0.0000000000000000    
   0.0000000000000000       0.0000000000000000    
   0.0000000000000000       0.0000000000000000    
  0.24015396969253189     -0.97073480973995618    
  0.12206241616245348E-06  0.16479839584213243E-06
 -0.84567009719640143E-07   0.0000000000000000    
   0.0000000000000000       0.0000000000000000    
   0.0000000000000000       0.0000000000000000    
   1.0000000000000000       0.0000000000000000    
   0.0000000000000000       0.0000000000000000    
   0.0000000000000000       0.0000000000000000    
   0.0000000000000000       0.0000000000000000    
   0.0000000000000000       0.0000000000000000    
   0.0000000000000000       0.0000000000000000    
   0.0000000000000000       0.0000000000000000    
   0.0000000000000000       0.0000000000000000    
   0.0000000000000000       0.0000000000000000    
   0.0000000000000000       0.0000000000000000    
   0.0000000000000000       0.0000000000000000    
   0.0000000000000000       0.0000000000000000    
   0.0000000000000000       0.0000000000000000    
   1.0000000000000000       0.0000000000000000    
   0.0000000000000000       0.0000000000000000    
   0.0000000000000000       0.0000000000000000    
   0.0000000000000000       0.0000000000000000    
   0.0000000000000000       0.0000000000000000    
   0.0000000000000000       0.0000000000000000    
   0.0000000000000000       0.0000000000000000    
   0.0000000000000000       0.0000000000000000    
   0.0000000000000000       0.0000000000000000    
   0.0000000000000000       0.0000000000000000    
   0.0000000000000000       0.0000000000000000    
   0.0000000000000000       0.0000000000000000    
   0.0000000000000000       0.0000000000000000    
   1.0000000000000000       0.0000000000000000    
   0.0000000000000000       0.0000000000000000    
   0.0000000000000000       0.0000000000000000    
   0.0000000000000000       0.0000000000000000    
   0.0000000000000000       0.0000000000000000    
   0.0000000000000000       0.0000000000000000    
   0.0000000000000000       0.0000000000000000    
   0.0000000000000000       0.0000000000000000    
   0.0000000000000000       0.0000000000000000    
   0.0000000000000000       0.0000000000000000    
   0.0000000000000000       0.0000000000000000    
   0.0000000000000000       0.0000000000000000    
   0.0000000000000000       0.0000000000000000    
   1.0000000000000000       0.0000000000000000    
   0.0000000000000000       0.0000000000000000    
   0.0000000000000000       0.0000000000000000    
   0.0000000000000000       0.0000000000000000    
   0.0000000000000000       0.0000000000000000    
   0.0000000000000000       0.0000000000000000    
   0.0000000000000000       0.0000000000000000    
   0.0000000000000000       0.0000000000000000    
   0.0000000000000000       0.0000000000000000    
   0.0000000000000000       0.0000000000000000    
   0.0000000000000000       0.0000000000000000    
   0.0000000000000000       0.0000000000000000    
   0.0000000000000000       0.0000000000000000    
   1.0000000000000000       0.0000000000000000    
   0.0000000000000000       0.0000000000000000    
   0.0000000000000000       0.0000000000000000    
   0.0000000000000000       0.0000000000000000    
   0.0000000000000000       0.0000000000000000    
   0.0000000000000000       0.0000000000000000    
   0.0000000000000000       0.0000000000000000    
   0.0000000000000000       0.0000000000000000    
   0.0000000000000000       0.0000000000000000    
   0.0000000000000000       0.0000000000000000    
   0.0000000000000000       0.0000000000000000    
   0.0000000000000000       0.0000000000000000    
   0.0000000000000000       0.0000000000000000    
  0.48533634917275575     -0.75937134542219364    
  0.35758598874141173      0.95837054111695671E-01
 -0.45641846599812515E-08  0.77547093868835548E-08
 -0.16845479713239586      0.14958037625788578    
  0.10527684034754541E-08 -0.15868008757048259E-07
   0.0000000000000000       0.0000000000000000    
   0.0000000000000000       0.0000000000000000    
   0.0000000000000000       0.0000000000000000    
   0.0000000000000000       0.0000000000000000    
   0.0000000000000000       0.0000000000000000    
   0.0000000000000000       0.0000000000000000    
   0.0000000000000000       0.0000000000000000    
 -0.25400178434070729E-07 -0.10003911979954551E-06
 -0.25699130405854040E-06  0.16401204260176664E-06
 -0.13509142092839788     -0.96199088824005374    
  0.10177689950087850E-07  0.11582997759281580E-06
  0.25691415356271133E-01 -0.23593174884176607    
   0.0000000000000000       0.0000000000000000    
   0.0000000000000000       0.0000000000000000    
   0.0000000000000000       0.0000000000000000    
   0.0000000000000000       0.0000000000000000    
   0.0000000000000000       0.0000000000000000    
   0.0000000000000000       0.0000000000000000    
   0.0000000000000000       0.0000000000000000    
  0.15177061487561108     -0.23746465614581810    
 -0.86503919193695800     -0.23184029957934366    
 -0.21028551960893170E-06  0.25496869123889005E-06
 -0.25744255686727541      0.22859750514685148    
 -0.80837686092127868E-07  0.38550783727420221E-07
   0.0000000000000000       0.0000000000000000    
   0.0000000000000000       0.0000000000000000    
   1.0000000000000000       0.0000000000000000    
   0.0000000000000000       0.0000000000000000    
   0.0000000000000000       0.0000000000000000    
   0.0000000000000000       0.0000000000000000    
   0.0000000000000000       0.0000000000000000    
   0.0000000000000000       0.0000000000000000    
   0.0000000000000000       0.0000000000000000    
   0.0000000000000000       0.0000000000000000    
   0.0000000000000000       0.0000000000000000    
   0.0000000000000000       0.0000000000000000    
   0.0000000000000000       0.0000000000000000    
   0.0000000000000000       0.0000000000000000    
   0.0000000000000000       0.0000000000000000    
   1.0000000000000000       0.0000000000000000    
   0.0000000000000000       0.0000000000000000    
   0.0000000000000000       0.0000000000000000    
   0.0000000000000000       0.0000000000000000    
   0.0000000000000000       0.0000000000000000    
   0.0000000000000000       0.0000000000000000    
   0.0000000000000000       0.0000000000000000    
   0.0000000000000000       0.0000000000000000    
   0.0000000000000000       0.0000000000000000    
   0.0000000000000000       0.0000000000000000    
   0.0000000000000000       0.0000000000000000    
   0.0000000000000000       0.0000000000000000    
   0.0000000000000000       0.0000000000000000    
   1.0000000000000000       0.0000000000000000    
   0.0000000000000000       0.0000000000000000    
   0.0000000000000000       0.0000000000000000    
   0.0000000000000000       0.0000000000000000    
   0.0000000000000000       0.0000000000000000    
   0.0000000000000000       0.0000000000000000    
   0.0000000000000000       0.0000000000000000    
   0.0000000000000000       0.0000000000000000    
   0.0000000000000000       0.0000000000000000    
   0.0000000000000000       0.0000000000000000    
   0.0000000000000000       0.0000000000000000    
   0.0000000000000000       0.0000000000000000    
   0.0000000000000000       0.0000000000000000    
   1.0000000000000000       0.0000000000000000    
   0.0000000000000000       0.0000000000000000    
   0.0000000000000000       0.0000000000000000    
   0.0000000000000000       0.0000000000000000    
   0.0000000000000000       0.0000000000000000    
   0.0000000000000000       0.0000000000000000    
   0.0000000000000000       0.0000000000000000    
   0.0000000000000000       0.0000000000000000    
   0.0000000000000000       0.0000000000000000    
   0.0000000000000000       0.0000000000000000    
   0.0000000000000000       0.0000000000000000    
   0.0000000000000000       0.0000000000000000    
   0.0000000000000000       0.0000000000000000    
   1.0000000000000000       0.0000000000000000    
   0.0000000000000000       0.0000000000000000    
   0.0000000000000000       0.0000000000000000    
   0.0000000000000000       0.0000000000000000    
   0.0000000000000000       0.0000000000000000    
   0.0000000000000000       0.0000000000000000    
   0.0000000000000000       0.0000000000000000    
   0.0000000000000000       0.0000000000000000    
   0.0000000000000000       0.0000000000000000    
   0.0000000000000000       0.0000000000000000    
   0.0000000000000000       0.0000000000000000    
   0.0000000000000000       0.0000000000000000    
   0.0000000000000000       0.0000000000000000    
   1.0000000000000000       0.0000000000000000    
   0.0000000000000000       0.0000000000000000    
   0.0000000000000000       0.0000000000000000    
   0.0000000000000000       0.0000000000000000    
   0.0000000000000000       0.0000000000000000    
   0.0000000000000000       0.0000000000000000    
   0.0000000000000000       0.0000000000000000    
   0.0000000000000000       0.0000000000000000    
   0.0000000000000000       0.0000000000000000    
   0.0000000000000000       0.0000000000000000    
   0.0000000000000000       0.0000000000000000    
   0.0000000000000000       0.0000000000000000    
   0.0000000000000000       0.0000000000000000    
  0.36868038311067142     -0.22412040635171709    
 -0.90213348156806028       0.0000000000000000    
   0.0000000000000000       0.0000000000000000    
   0.0000000000000000       0.0000000000000000    
   0.0000000000000000       0.0000000000000000    
   0.0000000000000000       0.0000000000000000    
   0.0000000000000000       0.0000000000000000    
   0.0000000000000000       0.0000000000000000    
   0.0000000000000000       0.0000000000000000    
   0.0000000000000000       0.0000000000000000    
   0.0000000000000000       0.0000000000000000    
   0.0000000000000000       0.0000000000000000    
  0.77087376756463299     -0.46861332999266891    
  0.43145704471463930       0.0000000000000000    
   0.0000000000000000       0.0000000000000000    
   0.0000000000000000       0.0000000000000000    
   0.0000000000000000       0.0000000000000000    
   0.0000000000000000       0.0000000000000000    
   1.0000000000000000       0.0000000000000000    
   0.0000000000000000       0.0000000000000000    
   0.0000000000000000       0.0000000000000000    
   0.0000000000000000       0.0000000000000000    
   0.0000000000000000       0.0000000000000000    
   0.0000000000000000       0.0000000000000000    
   0.0000000000000000       0.0000000000000000    
   0.0000000000000000       0.0000000000000000    
   0.0000000000000000       0.0000000000000000    
   0.0000000000000000       0.0000000000000000    
   0.0000000000000000       0.0000000000000000    
   0.0000000000000000       0.0000000000000000    
   0.0000000000000000       0.0000000000000000    
   1.0000000000000000       0.0000000000000000    
   0.0000000000000000       0.0000000000000000    
   0.0000000000000000       0.0000000000000000    
   0.0000000000000000       0.0000000000000000    
   0.0000000000000000       0.0000000000000000    
   0.0000000000000000       0.0000000000000000    
   0.0000000000000000       0.0000000000000000    
   0.0000000000000000       0.0000000000000000    
   0.0000000000000000       0.0000000000000000    
   0.0000000000000000       0.0000000000000000    
   0.0000000000000000       0.0000000000000000    
   0.0000000000000000       0.0000000000000000    
   0.0000000000000000       0.0000000000000000    
   1.0000000000000000       0.0000000000000000    
   0.0000000000000000       0.0000000000000000    
   0.0000000000000000       0.0000000000000000    
   0.0000000000000000       0.0000000000000000    
   0.0000000000000000       0.0000000000000000    
   0.0000000000000000       0.0000000000000000    
   0.0000000000000000       0.0000000000000000    
   0.0000000000000000       0.0000000000000000    
   0.0000000000000000       0.0000000000000000    
   0.0000000000000000       0.0000000000000000    
   0.0000000000000000       0.0000000000000000    
   0.0000000000000000       0.0000000000000000    
   0.0000000000000000       0.0000000000000000    
   1.0000000000000000       0.0000000000000000    
   0.0000000000000000       0.0000000000000000    
   0.0000000000000000       0.0000000000000000    
   0.0000000000000000       0.0000000000000000    
   0.0000000000000000       0.0000000000000000    
   0.0000000000000000       0.0000000000000000    
   0.0000000000000000       0.0000000000000000    
   0.0000000000000000       0.0000000000000000    
   0.0000000000000000       0.0000000000000000    
   0.0000000000000000       0.0000000000000000    
   0.0000000000000000       0.0000000000000000    
   0.0000000000000000       0.0000000000000000    
   0.0000000000000000       0.0000000000000000    
   1.0000000000000000       0.0000000000000000    
   0.0000000000000000       0.0000000000000000    
   0.0000000000000000       0.0000000000000000    
   0.0000000000000000       0.0000000000000000    
   0.0000000000000000       0.0000000000000000    
   0.0000000000000000       0.0000000000000000    
   0.0000000000000000       0.0000000000000000    
   0.0000000000000000       0.0000000000000000    
   0.0000000000000000       0.0000000000000000    
   0.0000000000000000       0.0000000000000000    
   0.0000000000000000       0.0000000000000000    
   0.0000000000000000       0.0000000000000000    
   0.0000000000000000       0.0000000000000000    
  0.35300465249776669      0.82920681126894424    
 -0.17921348631873643     -0.32393671736949692    
 -0.36329701379494129E-07 -0.13591266981806753E-07
  0.22372687224931279      0.26412034283952904E-01
  0.76903642954603236E-08 -0.41179482800726029E-08
   0.0000000000000000       0.0000000000000000    
   0.0000000000000000       0.0000000000000000    
   0.0000000000000000       0.0000000000000000    
   0.0000000000000000       0.0000000000000000    
   0.0000000000000000       0.0000000000000000    
   0.0000000000000000       0.0000000000000000    
   0.0000000000000000       0.0000000000000000    
  0.10988936174630686E-06  0.37213270480622253E-06
  0.53464518737059581E-06  0.12147555186938218E-05
 -0.96192231004927986     -0.13557887725683104    
  0.46402955525988451E-06  0.10337907577012145E-06
 -0.56283564167927756E-01  0.23055584545539329    
   0.0000000000000000       0.0000000000000000    
   0.0000000000000000       0.0000000000000000    
   0.0000000000000000       0.0000000000000000    
   0.0000000000000000       0.0000000000000000    
   0.0000000000000000       0.0000000000000000    
   0.0000000000000000       0.0000000000000000    
   0.0000000000000000       0.0000000000000000    
 -0.11038878605173320     -0.25930309160931653    
 -0.43353664411639248     -0.78363813119368020    
 -0.14131135737021000E-05 -0.65960035145178414E-07
 -0.34191254219437683     -0.40364509553436380E-01
 -0.51112367573521703E-07  0.36454535510590533E-06
   0.0000000000000000       0.0000000000000000    
   0.0000000000000000       0.0000000000000000    
   1.0000000000000000       0.0000000000000000    
   0.0000000000000000       0.0000000000000000    
   0.0000000000000000       0.0000000000000000    
   0.0000000000000000       0.0000000000000000    
   0.0000000000000000       0.0000000000000000    
   0.0000000000000000       0.0000000000000000    
   0.0000000000000000       0.0000000000000000    
   0.0000000000000000       0.0000000000000000    
   0.0000000000000000       0.0000000000000000    
   0.0000000000000000       0.0000000000000000    
   0.0000000000000000       0.0000000000000000    
   0.0000000000000000       0.0000000000000000    
   0.0000000000000000       0.0000000000000000    
   1.0000000000000000       0.0000000000000000    
   0.0000000000000000       0.0000000000000000    
   0.0000000000000000       0.0000000000000000    
   0.0000000000000000       0.0000000000000000    
   0.0000000000000000       0.0000000000000000    
   0.0000000000000000       0.0000000000000000    
   0.0000000000000000       0.0000000000000000    
   0.0000000000000000       0.0000000000000000    
   0.0000000000000000       0.0000000000000000    
   0.0000000000000000       0.0000000000000000    
   0.0000000000000000       0.0000000000000000    
   0.0000000000000000       0.0000000000000000    
   0.0000000000000000       0.0000000000000000    
   1.0000000000000000       0.0000000000000000    
   0.0000000000000000       0.0000000000000000    
   0.0000000000000000       0.0000000000000000    
   0.0000000000000000       0.0000000000000000    
   0.0000000000000000       0.0000000000000000    
   0.0000000000000000       0.0000000000000000    
   0.0000000000000000       0.0000000000000000    
   0.0000000000000000       0.0000000000000000    
   0.0000000000000000       0.0000000000000000    
   0.0000000000000000       0.0000000000000000    
   0.0000000000000000       0.0000000000000000    
   0.0000000000000000       0.0000000000000000    
   0.0000000000000000       0.0000000000000000    
   1.0000000000000000       0.0000000000000000    
   0.0000000000000000       0.0000000000000000    
   0.0000000000000000       0.0000000000000000    
   0.0000000000000000       0.0000000000000000    
   0.0000000000000000       0.0000000000000000    
   0.0000000000000000       0.0000000000000000    
   0.0000000000000000       0.0000000000000000    
   0.0000000000000000       0.0000000000000000    
   0.0000000000000000       0.0000000000000000    
   0.0000000000000000       0.0000000000000000    
   0.0000000000000000       0.0000000000000000    
   0.0000000000000000       0.0000000000000000    
   0.0000000000000000       0.0000000000000000    
   1.0000000000000000       0.0000000000000000    
   0.0000000000000000       0.0000000000000000    
   0.0000000000000000       0.0000000000000000    
   0.0000000000000000       0.0000000000000000    
   0.0000000000000000       0.0000000000000000    
   0.0000000000000000       0.0000000000000000    
   0.0000000000000000       0.0000000000000000    
   0.0000000000000000       0.0000000000000000    
   0.0000000000000000       0.0000000000000000    
   0.0000000000000000       0.0000000000000000    
   0.0000000000000000       0.0000000000000000    
   0.0000000000000000       0.0000000000000000    
   0.0000000000000000       0.0000000000000000    
   1.0000000000000000       0.0000000000000000    
   0.0000000000000000       0.0000000000000000    
   0.0000000000000000       0.0000000000000000    
   0.0000000000000000       0.0000000000000000    
   0.0000000000000000       0.0000000000000000    
   0.0000000000000000       0.0000000000000000    
   0.0000000000000000       0.0000000000000000    
   0.0000000000000000       0.0000000000000000    
   0.0000000000000000       0.0000000000000000    
   0.0000000000000000       0.0000000000000000    
   0.0000000000000000       0.0000000000000000    
   0.0000000000000000       0.0000000000000000    
   0.0000000000000000       0.0000000000000000    
   1.0000000000000000       0.0000000000000000    
   0.0000000000000000       0.0000000000000000    
   0.0000000000000000       0.0000000000000000    
   0.0000000000000000       0.0000000000000000    
   0.0000000000000000       0.0000000000000000    
   0.0000000000000000       0.0000000000000000    
   0.0000000000000000       0.0000000000000000    
   0.0000000000000000       0.0000000000000000    
   0.0000000000000000       0.0000000000000000    
   0.0000000000000000       0.0000000000000000    
   0.0000000000000000       0.0000000000000000    
   0.0000000000000000       0.0000000000000000    
   0.0000000000000000       0.0000000000000000    
 -0.55697892844086117     -0.73433521692551018    
  0.17591099521415476E-06 -0.76929153054712968E-07
  0.15469776370023199E-06 -0.28940143807173147E-07
  0.38797714166658348       0.0000000000000000    
   0.0000000000000000       0.0000000000000000    
   1.0000000000000000       0.0000000000000000    
   0.0000000000000000       0.0000000000000000    
   0.0000000000000000       0.0000000000000000    
   0.0000000000000000       0.0000000000000000    
   0.0000000000000000       0.0000000000000000    
   0.0000000000000000       0.0000000000000000    
   0.0000000000000000       0.0000000000000000    
   0.0000000000000000       0.0000000000000000    
   0.0000000000000000       0.0000000000000000    
   0.0000000000000000       0.0000000000000000    
   0.0000000000000000       0.0000000000000000    
   0.0000000000000000       0.0000000000000000    
   0.0000000000000000       0.0000000000000000    
   1.0000000000000000       0.0000000000000000    
   0.0000000000000000       0.0000000000000000    
   0.0000000000000000       0.0000000000000000    
   0.0000000000000000       0.0000000000000000    
   0.0000000000000000       0.0000000000000000    
   0.0000000000000000       0.0000000000000000    
   0.0000000000000000       0.0000000000000000    
   0.0000000000000000       0.0000000000000000    
   0.0000000000000000       0.0000000000000000    
   0.0000000000000000       0.0000000000000000    
   0.0000000000000000       0.0000000000000000    
   0.0000000000000000       0.0000000000000000    
   0.0000000000000000       0.0000000000000000    
   1.0000000000000000       0.0000000000000000    
   0.0000000000000000       0.0000000000000000    
   0.0000000000000000       0.0000000000000000    
   0.0000000000000000       0.0000000000000000    
   0.0000000000000000       0.0000000000000000    
   0.0000000000000000       0.0000000000000000    
   0.0000000000000000       0.0000000000000000    
   0.0000000000000000       0.0000000000000000    
   0.0000000000000000       0.0000000000000000    
   0.0000000000000000       0.0000000000000000    
   0.0000000000000000       0.0000000000000000    
   0.0000000000000000       0.0000000000000000    
   0.0000000000000000       0.0000000000000000    
   1.0000000000000000       0.0000000000000000    
   0.0000000000000000       0.0000000000000000    
   0.0000000000000000       0.0000000000000000    
   0.0000000000000000       0.0000000000000000    
   0.0000000000000000       0.0000000000000000    
   0.0000000000000000       0.0000000000000000    
   0.0000000000000000       0.0000000000000000    
   0.0000000000000000       0.0000000000000000    
   0.0000000000000000       0.0000000000000000    
   0.0000000000000000       0.0000000000000000    
   0.0000000000000000       0.0000000000000000    
   0.0000000000000000       0.0000000000000000    
   0.0000000000000000       0.0000000000000000    
   1.0000000000000000       0.0000000000000000    
   0.0000000000000000       0.0000000000000000    
   0.0000000000000000       0.0000000000000000    
   0.0000000000000000       0.0000000000000000    
   0.0000000000000000       0.0000000000000000    
   0.0000000000000000       0.0000000000000000    
   0.0000000000000000       0.0000000000000000    
   0.0000000000000000       0.0000000000000000    
   0.0000000000000000       0.0000000000000000    
   0.0000000000000000       0.0000000000000000    
   0.0000000000000000       0.0000000000000000    
   0.0000000000000000       0.0000000000000000    
   0.0000000000000000       0.0000000000000000    
 -0.79279963516836216     -0.60948235288391395    
 -0.17263388847052513E-07 -0.28933040860521144E-08
  0.22329986904080951E-14  0.29642727302675562E-15
  0.35057065668873361E-09 -0.11494321233173243E-08
  0.22851195743746530E-09 -0.20012590845880224E-08
   0.0000000000000000       0.0000000000000000    
   0.0000000000000000       0.0000000000000000    
   0.0000000000000000       0.0000000000000000    
   0.0000000000000000       0.0000000000000000    
   0.0000000000000000       0.0000000000000000    
   0.0000000000000000       0.0000000000000000    
   0.0000000000000000       0.0000000000000000    
  0.42611468101840373E-15  0.18061593925556501E-14
  0.47488608005555646E-07  0.90595103284129418E-08
  0.81858235522684475      0.57438917791970001    
  0.11418080410880131E-07  0.97313565525227519E-08
  0.32232232905377943E-08 -0.23528525497219533E-07
   0.0000000000000000       0.0000000000000000    
   0.0000000000000000       0.0000000000000000    
   0.0000000000000000       0.0000000000000000    
   0.0000000000000000       0.0000000000000000    
   0.0000000000000000       0.0000000000000000    
   0.0000000000000000       0.0000000000000000    
   0.0000000000000000       0.0000000000000000    
 -0.10164061596730626E-07  0.93513772881079850E-08
  0.28149565869476983     -0.80172848867282831    
 -0.36965977519102425E-07  0.38814123565590602E-07
  0.75403475872360307E-08 -0.19234205085175070E-07
 -0.50593601100917651     -0.14839264587741019    
   0.0000000000000000       0.0000000000000000    
   0.0000000000000000       0.0000000000000000    
   1.0000000000000000       0.0000000000000000    
   0.0000000000000000       0.0000000000000000    
   0.0000000000000000       0.0000000000000000    
   0.0000000000000000       0.0000000000000000    
   0.0000000000000000       0.0000000000000000    
   0.0000000000000000       0.0000000000000000    
   0.0000000000000000       0.0000000000000000    
   0.0000000000000000       0.0000000000000000    
   0.0000000000000000       0.0000000000000000    
   0.0000000000000000       0.0000000000000000    
   0.0000000000000000       0.0000000000000000    
   0.0000000000000000       0.0000000000000000    
   0.0000000000000000       0.0000000000000000    
   1.0000000000000000       0.0000000000000000    
   0.0000000000000000       0.0000000000000000    
   0.0000000000000000       0.0000000000000000    
   0.0000000000000000       0.0000000000000000    
   0.0000000000000000       0.0000000000000000    
   0.0000000000000000       0.0000000000000000    
   0.0000000000000000       0.0000000000000000    
   0.0000000000000000       0.0000000000000000    
   0.0000000000000000       0.0000000000000000    
   0.0000000000000000       0.0000000000000000    
   0.0000000000000000       0.0000000000000000    
   0.0000000000000000       0.0000000000000000    
   0.0000000000000000       0.0000000000000000    
   1.0000000000000000       0.0000000000000000    
   0.0000000000000000       0.0000000000000000    
   0.0000000000000000       0.0000000000000000    
   0.0000000000000000       0.0000000000000000    
   0.0000000000000000       0.0000000000000000    
   0.0000000000000000       0.0000000000000000    
   0.0000000000000000       0.0000000000000000    
   0.0000000000000000       0.0000000000000000    
   0.0000000000000000       0.0000000000000000    
   0.0000000000000000       0.0000000000000000    
   0.0000000000000000       0.0000000000000000    
   0.0000000000000000       0.0000000000000000    
   0.0000000000000000       0.0000000000000000    
   1.0000000000000000       0.0000000000000000    
   0.0000000000000000       0.0000000000000000    
   0.0000000000000000       0.0000000000000000    
   0.0000000000000000       0.0000000000000000    
   0.0000000000000000       0.0000000000000000    
   0.0000000000000000       0.0000000000000000    
   0.0000000000000000       0.0000000000000000    
   0.0000000000000000       0.0000000000000000    
   0.0000000000000000       0.0000000000000000    
   0.0000000000000000       0.0000000000000000    
   0.0000000000000000       0.0000000000000000    
   0.0000000000000000       0.0000000000000000    
   0.0000000000000000       0.0000000000000000    
   1.0000000000000000       0.0000000000000000    
   0.0000000000000000       0.0000000000000000    
   0.0000000000000000       0.0000000000000000    
   0.0000000000000000       0.0000000000000000    
   0.0000000000000000       0.0000000000000000    
   0.0000000000000000       0.0000000000000000    
   0.0000000000000000       0.0000000000000000    
   0.0000000000000000       0.0000000000000000    
   0.0000000000000000       0.0000000000000000    
   0.0000000000000000       0.0000000000000000    
   0.0000000000000000       0.0000000000000000    
   0.0000000000000000       0.0000000000000000    
   0.0000000000000000       0.0000000000000000    
 -0.87212892187121849      0.22712851577212018    
 -0.35030842108222959      0.11973504599106413    
  0.36296051770056713E-07  0.35937105012392605E-07
  0.86351320283545030E-01 -0.20807392754638548    
  0.88303604305145896E-08  0.86554696459548308E-08
   0.0000000000000000       0.0000000000000000    
   0.0000000000000000       0.0000000000000000    
   0.0000000000000000       0.0000000000000000    
   0.0000000000000000       0.0000000000000000    
   0.0000000000000000       0.0000000000000000    
   0.0000000000000000       0.0000000000000000    
   0.0000000000000000       0.0000000000000000    
  0.26706938043851689E-06 -0.66748762933084607E-07
 -0.95618430652546693E-06  0.31051907279587695E-06
 -0.65145594883604219     -0.72061175905125729    
 -0.12209369202108938E-06  0.31571503766578660E-06
  0.23389025737654409     -0.40239122086812296E-01
   0.0000000000000000       0.0000000000000000    
   0.0000000000000000       0.0000000000000000    
[...]
 -0.15886340750779374      0.36203260941474191E-01
  0.34597406919194412      0.82191649966983971    
 -0.41893656895484924E-01 -0.97272633870000950E-02
 -0.70967557505057871E-01 -0.27986490437428464E-01
 -0.79599247069940746E-02  0.57176923703094479E-02
  0.24223327276747919E-01  0.15230732065193807E-01
 -0.34017269998251866E-01 -0.43449010928591922E-01
 -0.22209596136023673E-01  0.37298943710628633E-01
 -0.20157062014355778      0.38385069897216163E-01
 -0.48438382413728297E-01  0.19354368156188736E-01
  0.30234659787744211      0.83285451228701390    
 -0.48438366991152823E-01  0.19354359348892982E-01
  0.30667350457062516E-01  0.37118182219648702E-01
 -0.63852397377347811E-01 -0.71846047599864555E-02
 -0.19294774940489662E-01  0.15830339835413758E-01
 -0.63852394681416444E-01 -0.71846028687218332E-02
 -0.15886340076887437      0.36203263747950097E-01
 -0.70967565871725743E-01 -0.27986494878403639E-01
 -0.41893645398401701E-01 -0.97272676425708849E-02
  0.34597409225159420      0.82191649451950055    
 -0.79599252622150722E-02  0.57176855619309689E-02
 -0.22209600632786070E-01  0.37298943625615900E-01
 -0.34017272648177443E-01 -0.43449003272285472E-01
  0.24223325620780146E-01  0.15230735653937280E-01
  0.21447280498499886E-01 -0.19325005948113511E-01
 -0.14231686964760642E-01 -0.37145474160969118E-01
 -0.10029589619572671E-01 -0.13036461337050930E-01
 -0.14231679886445137E-01 -0.37145472231490048E-01
  0.92545355327969558     -0.19949649092708662E-02
  0.51038990778409701E-02  0.18974749233211571    
 -0.19761251381547110E-01  0.16944599570748961    
  0.51038989003843894E-02  0.18974749502269561    
 -0.22363202305826914E-02  0.95420828887230434E-02
  0.23341234587805963E-01  0.16550878398725939E-01
 -0.53159492224717025E-01 -0.14800645367784542E-01
  0.25960483087381303E-01 -0.34792675262209347E-01
  0.27346935202272375E-01  0.16062502690571304    
  0.89175037505055665      0.51045283721925109E-02
 -0.25018828170837122E-01 -0.34982233028469832E-01
 -0.53014267620556062E-01 -0.54855529748844667E-01
 -0.46028622674056795E-01 -0.14128431393740482E-01
 -0.31072951719933788E-01 -0.56242494158599943E-01
  0.72415370691689346E-02 -0.23884034593478234E-01
 -0.31072950547639758E-01 -0.56242484067534654E-01
  0.41674558365709796E-01  0.20091629078074152    
 -0.65546527803779693E-03 -0.52157831579200738E-01
  0.88516027192616187     -0.39387819651642571E-01
 -0.65546593503538792E-03 -0.52157839791275036E-01
 -0.22363240952208265E-02  0.95420842772472123E-02
  0.25960483777921796E-01 -0.34792676435145393E-01
 -0.53159494155198495E-01 -0.14800646709188764E-01
  0.23341239223403167E-01  0.16550885848315700E-01
  0.27346935563123120E-01  0.16062502722081048    
 -0.53014260792017091E-01 -0.54855531144427302E-01
 -0.25018824985458911E-01 -0.34982240210516366E-01
  0.89175037230506837      0.51045235492039390E-02
  0.85577105614199278     -0.35231256919819964    
 -0.83101186542091324E-01 -0.14898539352015377    
 -0.67897835330952019E-01 -0.17725701437725452    
  0.67897830357269082E-01  0.17725701380280862    
  0.27210068842317418E-01  0.96464532070040573E-02
 -0.42772917426727713E-02  0.15882271578410011E-01
  0.10665951482188296E-02  0.39764165504962132E-01
 -0.10665913604789008E-02 -0.39764167987813577E-01
 -0.38385069138691941E-01 -0.20157061888228206    
  0.83285452034278562     -0.30234660359824073    
  0.19354354613060877E-01  0.48438361938597796E-01
 -0.19354362762497208E-01 -0.48438362162894717E-01
 -0.37118178565052631E-01  0.30667356501682726E-01
  0.15830332683329725E-01  0.19294759814873188E-01
 -0.71845949892088996E-02  0.63852387423230281E-01
  0.71845921160113282E-02 -0.63852393068677515E-01
 -0.36203263569491141E-01 -0.15886340398893445    
 -0.97272690367278536E-02  0.41893647400360008E-01
  0.82191650084355361     -0.34597408718936767    
  0.27986486792831791E-01 -0.70967557537847170E-01
 -0.57176913205390636E-02 -0.79599267837613119E-02
 -0.43449003250169954E-01  0.34017266128698563E-01
  0.15230738335295238E-01 -0.24223320271299056E-01
 -0.37298942664317492E-01 -0.22209605330127641E-01
  0.36203262903186907E-01  0.15886340092045043    
  0.97272715302496697E-02 -0.41893650256326243E-01
  0.27986496712839079E-01 -0.70967559451315040E-01
  0.82191649802001865     -0.34597408810756419    
  0.57176866443376956E-02  0.79599243942389212E-02
  0.43449005494582145E-01 -0.34017265332790585E-01
 -0.37298942721552833E-01 -0.22209601225413326E-01
  0.15230741995547147E-01 -0.24223321387070354E-01
  0.21447286963898245E-01 -0.19325006190318204E-01
  0.10029587834737378E-01  0.13036461988947179E-01
  0.14231683209384845E-01  0.37145466708696270E-01
 -0.14231679738428295E-01 -0.37145461069604216E-01
  0.92545354873463337     -0.19950136630642002E-02
  0.19761246383787533E-01 -0.16944599997873463    
 -0.51039013549946926E-02 -0.18974749789571918    
  0.51038977438664628E-02  0.18974750895200215    
  0.46028618620497938E-01  0.14128430947390466E-01
  0.72415291032283530E-02 -0.23884044155154934E-01
 -0.31072948489358470E-01 -0.56242487653227452E-01
  0.31072954531464407E-01  0.56242490156977791E-01
 -0.41674561390595145E-01 -0.20091629494860189    
  0.88516028050240170     -0.39387781896372188E-01
 -0.65546010429349795E-03 -0.52157797749890392E-01
  0.65547009605392036E-03  0.52157823860689803E-01
  0.22363198277664731E-02 -0.95420759068755509E-02
 -0.53159490135770524E-01 -0.14800643965088157E-01
  0.23341236682548918E-01  0.16550877942689862E-01
 -0.25960483474223656E-01  0.34792680340270103E-01
 -0.27346933805518284E-01 -0.16062502675800422    
 -0.25018830288334529E-01 -0.34982209895250277E-01
  0.89175037986593009      0.51045659072421531E-02
  0.53014266101707348E-01  0.54855516904833465E-01
 -0.22363280545033889E-02  0.95420782074569846E-02
  0.53159494400593872E-01  0.14800642351680129E-01
 -0.25960486649116855E-01  0.34792678489978933E-01
  0.23341229880167014E-01  0.16550881760475776E-01
  0.27346941836851948E-01  0.16062504144093284    
  0.25018826153090895E-01  0.34982231952036015E-01
  0.53014252307488852E-01  0.54855516774389011E-01
  0.89175037555810821      0.51045160819629988E-02
  0.83702954262813711     -0.33227775091992451    
 -0.62560089780709774E-01 -0.17051722452747220    
  0.62560090889902095E-01  0.17051722687810492    
 -0.62560087402810813E-01 -0.17051721751893398    
  0.48611251557688612E-01  0.26206218365952814E-02
 -0.93653703214726537E-02  0.27672938086781653E-02
  0.93653639728374875E-02 -0.27672899981233180E-02
 -0.93653704484400607E-02  0.27672988919046292E-02
 -0.97075117274268583E-01 -0.19009814564154232    
  0.83022672084010918     -0.28358904503378096    
  0.39417839641119529E-01 -0.11692760950841343E-01
 -0.39417844643995996E-01  0.11692763276172356E-01
  0.13687497409048291E-02  0.55720302963616533E-01
  0.24550536360333840E-02  0.19341967409420926E-01
  0.40433150173866689E-02  0.53943417686955986E-01
 -0.40433112894181188E-02 -0.53943424453138759E-01
  0.97075114793417294E-01  0.19009814884164211    
  0.39417844336995231E-01 -0.11692761810773382E-01
  0.83022672333867753     -0.28358903215279629    
  0.39417833396366557E-01 -0.11692767544279014E-01
 -0.13687437927670466E-02 -0.55720297727919976E-01
  0.40433186504532552E-02  0.53943413415017731E-01
  0.24550496934103759E-02  0.19341967939587104E-01
  0.40433144482522375E-02  0.53943423163896380E-01
 -0.97075118825093440E-01 -0.19009814115501686    
 -0.39417840704632598E-01  0.11692767028531916E-01
  0.39417843419315729E-01 -0.11692768453009771E-01
  0.83022672746860471     -0.28358902812342235    
  0.13687522826230640E-02  0.55720305677674095E-01
 -0.40433137522792846E-02 -0.53943425047165129E-01
  0.40433145384517408E-02  0.53943419560648451E-01
  0.24550514524848094E-02  0.19341966664457731E-01
  0.43908073253786727E-01 -0.21023853236595471E-01
  0.97114709081489829E-02 -0.10273237475572627E-02
 -0.97114747539229374E-02  0.10273163600343584E-02
  0.97114662887289940E-02 -0.10273290996892076E-02
  0.90047165341019531     -0.13332749045699964E-01
 -0.74561331813194579E-02 -0.18147808577401664    
  0.74561349746999897E-02  0.18147807376105091    
 -0.74561322275926191E-02 -0.18147808687504341    
  0.20058679291209587E-01  0.52002646726674269E-01
 -0.51336766401176284E-02 -0.18809161239462066E-01
 -0.16907716753417942E-01 -0.51384527870856768E-01
  0.16907714461788667E-01  0.51384521291546997E-01
  0.16938297985935571E-01 -0.21277682649115948    
  0.87555430558813974     -0.55711893140580247E-01
  0.40891962469869841E-01 -0.42818494949782527E-02
 -0.40891960807178759E-01  0.42818704416047720E-02
 -0.20058672580047433E-01 -0.52002647182740371E-01
 -0.16907721770637551E-01 -0.51384532848182181E-01
 -0.51336827336948294E-02 -0.18809154509880781E-01
 -0.16907717341976467E-01 -0.51384532872459289E-01
 -0.16938307087447917E-01  0.21277682089490069    
  0.40891964067985960E-01 -0.42818419435925494E-02
  0.87555430233372789     -0.55711923526271655E-01
  0.40891967156919687E-01 -0.42818513114249107E-02
  0.20058677129788274E-01  0.52002645176103875E-01
  0.16907708322163286E-01  0.51384525508983175E-01
 -0.16907713985991963E-01 -0.51384522962037993E-01
 -0.51336752434144430E-02 -0.18809158737845385E-01
  0.16938298211548509E-01 -0.21277682842929316    
 -0.40891959516391324E-01  0.42818683804647286E-02
  0.40891958364448706E-01 -0.42818553330859228E-02
  0.87555430800931466     -0.55711873060017875E-01
  0.80841447806241240      0.31622502268245234    
  0.98877803110134596E-01 -0.12696490987408537    
 -0.98877794464430430E-01  0.12696491230723167    
 -0.14680921374851097      0.25226455986978524    
  0.55914968584600822E-01  0.61461787413276979E-01
  0.28464744010606006E-01  0.44180025094089213E-01
 -0.28464752143475991E-01 -0.44180037107221896E-01
  0.62277406219183255E-01 -0.11157786868225482    
  0.84409813969968592E-01 -0.19396433073168678    
  0.81342172607775476      0.37928428337202025    
  0.35662498589824572E-01  0.35341038505283570E-01
  0.37351368348134900E-03 -0.73622644517828111E-02
 -0.42468988590791464E-01  0.22639827335167190E-01
 -0.18631541634417298E-01  0.22632816636793528E-01
 -0.71009735022456856E-03  0.26286390366621077E-01
  0.38438445596049212E-01 -0.29674974085890202E-02
 -0.84409828359133493E-01  0.19396433308551675    
  0.35662506003546035E-01  0.35341046949020592E-01
  0.81342172499452359      0.37928429190705959    
 -0.37351533697090977E-03  0.73622679949851633E-02
  0.42469000592761284E-01 -0.22639820772188460E-01
 -0.71009682525375272E-03  0.26286378489967392E-01
 -0.18631540499633548E-01  0.22632824617570393E-01
 -0.38438452811620484E-01  0.29674823752107206E-02
 -0.76223570879154670E-01  0.11053984004690917    
  0.66059076477731904E-02  0.13573812046853168    
 -0.66059004801626870E-02 -0.13573811383975859    
  0.75573965007535215      0.27810655213067664    
  0.63102043783447633E-02  0.74897778853308949E-01
  0.11167308253454661E-01  0.91544834248665455E-01
 -0.11167296463129042E-01 -0.91544843032809589E-01
  0.10829465561256323     -0.15704952724419779E-01
  0.75179094654985526E-01 -0.35385567177927554E-01
 -0.43204957601547189E-01  0.29924026088353182E-01
  0.43204951614330592E-01 -0.29924026201969607E-01
 -0.14837813857182290E-01 -0.12691703479466024    
  0.86789167501106690      0.17213052814576239E-01
 -0.42763799744849597E-01 -0.15513918764766638    
  0.42763813627958717E-01  0.15513918730991610    
  0.39096548175575653E-01  0.28924351926222042    
  0.30572351368474329E-01  0.37168657588469871E-01
 -0.85520881807750210E-02 -0.28039978135981674E-01
  0.94033182215948440E-02 -0.24557193454021693E-01
  0.34376882164610059E-01  0.17451361291358044E-01
 -0.37575658136008027E-02 -0.21150191686110795    
  0.89664949955658613     -0.39129967326747200E-01
  0.46472296085496224E-01 -0.19003404275064313E-01
 -0.24723408991818800E-02  0.69447946868736923E-02
 -0.30572355259259526E-01 -0.37168652664901762E-01
  0.94033219028188866E-02 -0.24557205955038155E-01
 -0.85520942695791833E-02 -0.28039976868750875E-01
 -0.34376878718923982E-01 -0.17451349374942936E-01
  0.37575684554468649E-02  0.21150191394475015    
  0.46472288416194357E-01 -0.19003416042336289E-01
  0.89664948752735663     -0.39129986420034200E-01
  0.24723378869069114E-02 -0.69448207048253292E-02
 -0.34492005696348804E-01  0.66781725789106225E-01
  0.45349934008864057E-01 -0.80302859492972445E-01
 -0.45349937702717315E-01  0.80302852253179263E-01
  0.94041197031130772E-01  0.55952061906869424E-01
  0.28119622732681083E-01  0.13129499725942481    
  0.58047793364671432E-01 -0.12287769005271791    
 -0.58047806546153297E-01  0.12287768323180048    
  0.80463915860550694      0.32272058135500152E-01
  0.31622500852903768     -0.80841448606538513    
 -0.12696491841885033     -0.98877795547534147E-01
 -0.25226456224700500     -0.14680920536116662    
 -0.12696491082398631     -0.98877803094623407E-01
  0.61461805232018801E-01 -0.55914958206570921E-01
  0.44180022250807582E-01 -0.28464747733528382E-01
  0.11157786413211353      0.62277408105586574E-01
  0.44180018309312265E-01 -0.28464745354835740E-01
 -0.19396433339088417     -0.84409821341359950E-01
  0.37928427800423997     -0.81342173089479630    
  0.73622583591227576E-02  0.37351101859424174E-03
 -0.35341038999460742E-01  0.35662509710064134E-01
  0.22639823933068910E-01  0.42469001087472903E-01
  0.22632818593002670E-01  0.18631535580154096E-01
  0.29674915563420224E-02  0.38438441314276449E-01
 -0.26286389096912364E-01 -0.71010326885247090E-03
 -0.11053984423389530     -0.76223570889288370E-01
 -0.13573812251968220      0.66059112632592641E-02
  0.27810656821501145     -0.75573964855636877    
 -0.13573811665540952      0.66059139218934059E-02
 -0.74897790613061885E-01  0.63101962077761068E-02
 -0.91544832186045283E-01  0.11167293730497350E-01
 -0.15704953946518382E-01 -0.10829465652311941    
 -0.91544826103925184E-01  0.11167300799145413E-01
 -0.19396433116835177     -0.84409822230053014E-01
 -0.35341039044872277E-01  0.35662505715115506E-01
  0.73622793494221416E-02  0.37352025176998432E-03
  0.37928429591714302     -0.81342171880822545    
  0.22639824834041099E-01  0.42469003094205884E-01
 -0.26286393751265943E-01 -0.71009966299238859E-03
  0.29674825062681693E-02  0.38438435032272164E-01
  0.22632815488046260E-01  0.18631535932111913E-01
  0.75179103167670486E-01 -0.35385564115160112E-01
 -0.43204955834786958E-01  0.29924042046764798E-01
  0.14837824447744541E-01  0.12691703627379006    
 -0.43204966387759697E-01  0.29924041158639118E-01
  0.86789166503514825      0.17212968857629421E-01
 -0.42763812919488046E-01 -0.15513917611073999    
 -0.39096560728184016E-01 -0.28924351371666424    
 -0.42763807424019654E-01 -0.15513917172146363    
  0.30572349473504422E-01  0.37168653142289870E-01
 -0.85520964731579819E-02 -0.28039980098872683E-01
 -0.34376885694345001E-01 -0.17451357751776513E-01
 -0.94033226897581573E-02  0.24557192198956058E-01
 -0.37575720795330501E-02 -0.21150191710235461    
  0.89664949453105902     -0.39129961630438366E-01
  0.24723347345232088E-02 -0.69447777434594495E-02
 -0.46472285068250914E-01  0.19003437346887170E-01
  0.34491999747925571E-01 -0.66781720066989639E-01
 -0.45349935883415203E-01  0.80302852747188846E-01
  0.94041195203142289E-01  0.55952041420729383E-01
 -0.45349933983093171E-01  0.80302857048173887E-01
 -0.28119637940414978E-01 -0.13129498136785392    
 -0.58047791994041857E-01  0.12287770878447518    
  0.80463916666120372      0.32272098869537615E-01
 -0.58047784257688154E-01  0.12287770857333553    
  0.30572349771225096E-01  0.37168653907991858E-01
 -0.94033204029132129E-02  0.24557189609719265E-01
 -0.34376889212275073E-01 -0.17451359377177140E-01
 -0.85520923822684121E-02 -0.28039988005446752E-01
 -0.37575723778996862E-02 -0.21150191790269773    
 -0.46472288710516750E-01  0.19003431991859731E-01
  0.24723424039158827E-02 -0.69447696141443005E-02
  0.89664949809166028     -0.39129952712104801E-01
  0.80841449812729693      0.31622499214363486    
 -0.14680921003568378      0.25226455894620919    
 -0.98877801059844728E-01  0.12696491365185364    
  0.98877797792156732E-01 -0.12696491793876083    
  0.55914960229188522E-01  0.61461791538310787E-01
  0.62277403181771288E-01 -0.11157786575473105    
 -0.28464755376669315E-01 -0.44180022278515127E-01
  0.28464734963578691E-01  0.44180020943403071E-01
 -0.76223566092903081E-01  0.11053984823950280    
  0.75573964259670046      0.27810657332129013    
 -0.66059051680052022E-02 -0.13573811328837665    
  0.66059223967708785E-02  0.13573810976397285    
  0.63102018625527034E-02  0.74897782421892961E-01
  0.10829465820016630     -0.15704955368380590E-01
 -0.11167299965030301E-01 -0.91544842504335783E-01
  0.11167302060297967E-01  0.91544830977227321E-01
 -0.84409822321518876E-01  0.19396433442330627    
 -0.37351791225921535E-03  0.73622860020604022E-02
  0.81342171635216609      0.37928428985487778    
  0.35662515363821819E-01  0.35341034933057909E-01
  0.42469001776814091E-01 -0.22639825168125381E-01
 -0.38438449520776144E-01  0.29674811618232346E-02
 -0.18631541401136306E-01  0.22632824721650617E-01
 -0.71009994422089131E-03  0.26286390814521474E-01
  0.84409811341890503E-01 -0.19396432907071154    
  0.37351964024884336E-03 -0.73622700053662558E-02
  0.35662497902866727E-01  0.35341036810849616E-01
  0.81342172369148646      0.37928429438792938    
 -0.42468990338699941E-01  0.22639824662563722E-01
  0.38438439634833690E-01 -0.29674926363718718E-02
 -0.71009553687154320E-03  0.26286394247572991E-01
 -0.18631536927850471E-01  0.22632813765236903E-01
  0.75179096316991142E-01 -0.35385557573619594E-01
 -0.14837812480418445E-01 -0.12691703535281545    
  0.43204961995059334E-01 -0.29924035354114201E-01
 -0.43204957367381003E-01  0.29924029552787643E-01
  0.86789167278849533      0.17213016731483517E-01
  0.39096551877132048E-01  0.28924351475542392    
  0.42763812923210014E-01  0.15513917455146653    
 -0.42763799206422294E-01 -0.15513919553189756    
 -0.34492002849878280E-01  0.66781717986598516E-01
  0.94041194772383999E-01  0.55952057973657508E-01
 -0.45349936916574470E-01  0.80302862719204282E-01
  0.45349932270247570E-01 -0.80302853759428736E-01
  0.28119629066971411E-01  0.13129499014981075    
  0.80463916362047949      0.32272070030990960E-01
 -0.58047791661011011E-01  0.12287768529087072    
  0.58047794229317329E-01 -0.12287770112829600    
 -0.30572356621747263E-01 -0.37168650653888594E-01
 -0.34376889304911548E-01 -0.17451344209983302E-01
 -0.85521019501653139E-02 -0.28039977361405913E-01
  0.94033236824975393E-02 -0.24557198849891080E-01
  0.37575772839082843E-02  0.21150191139448957    
  0.24723411367478521E-02 -0.69448187789315340E-02
  0.89664949090430845     -0.39129988433113508E-01
  0.46472289768463494E-01 -0.19003418178825698E-01
  0.30572343835140410E-01  0.37168655907576301E-01
  0.34376882185352522E-01  0.17451376670619814E-01
  0.94033118617026200E-02 -0.24557193987551532E-01
 -0.85520843402336882E-02 -0.28039980412321034E-01
 -0.37575597935226770E-02 -0.21150192418504560    
 -0.24723389152133922E-02  0.69447663838680049E-02
  0.46472292065308209E-01 -0.19003415036675964E-01
  0.89664949851027431     -0.39129942295898702E-01
   1.3494018564763852       1.3494019339284717       1.3494018742857725    
   1.3494018824891503       1.3494018802001788       1.3494018902633833    
   1.3494019097392895       1.3494018676164203       1.3494018678723654    
   1.3494018715583296       1.3494018193459787       1.3494018877884937    
  0.77646076446215862E-07  0.68042308477671287E-07  0.10132093043497227E-07
 -0.14449325504941235E-07 -0.78136645469822907E-08 -0.14315997928965091E-07
 -0.88068532972106510E-07 -0.57084329693757319E-08 -0.17507638339428347E-07
  0.16927127175969865E-07 -0.80385170724700528E-07  0.54346641673139358E-08
   1.6886971598676954    
   2.8522836161073721    
   2.8522836060664982    
   2.8522836272658809    
   1.6886971626958438    
   2.8522836182821076    
   2.8522836091628707    
   2.8522836075965285    
