
             +---------------------------------------------------+
             |                                                   |
             |                   WANNIER90                       |
             |                                                   |
             +---------------------------------------------------+
             |                                                   |
             |        Welcome to the Maximally-Localized         |
             |        Generalized Wannier Functions code         |
             |            http://www.wannier.org                 |
             |                                                   |
             |                                                   |
             |  Wannier90 Developer Group:                       |
             |    Giovanni Pizzi    (EPFL)                       |
             |    Valerio Vitale    (Cambridge)                  |
             |    David Vanderbilt  (Rutgers University)         |
             |    Nicola Marzari    (EPFL)                       |
             |    Ivo Souza         (Universidad del Pais Vasco) |
             |    Arash A. Mostofi  (Imperial College London)    |
             |    Jonathan R. Yates (University of Oxford)       |
             |                                                   |
             |  For the full list of Wannier90 3.x authors,      |
             |  please check the code documentation and the      |
             |  README on the GitHub page of the code            |
             |                                                   |
             |                                                   |
             |  Please cite                                      |
             |                                                   |
             |  [ref] "Wannier90 as a community code:            |
             |        new features and applications",            |
             |        G. Pizzi et al., J. Phys. Cond. Matt. 32,  |
             |        165902 (2020).                             |
             |        http://doi.org/10.1088/1361-648X/ab51ff    |
             |                                                   |
             |  in any publications arising from the use of      |
             |  this code. For the method please cite            |
             |                                                   |
             |  [ref] "Maximally Localized Generalised Wannier   |
             |         Functions for Composite Energy Bands"     |
             |         N. Marzari and D. Vanderbilt              |
             |         Phys. Rev. B 56 12847 (1997)              |
             |                                                   |
             |  [ref] "Maximally Localized Wannier Functions     |
             |         for Entangled Energy Bands"               |
             |         I. Souza, N. Marzari and D. Vanderbilt    |
             |         Phys. Rev. B 65 035109 (2001)             |
             |                                                   |
             |                                                   |
             | Copyright (c) 1996-2020                           |
             |        The Wannier90 Developer Group and          |
             |        individual contributors                    |
             |                                                   |
             |      Release: 3.1.0        5th March    2020      |
             |                                                   |
             | This program is free software; you can            |
             | redistribute it and/or modify it under the terms  |
             | of the GNU General Public License as published by |
             | the Free Software Foundation; either version 2 of |
             | the License, or (at your option) any later version|
             |                                                   |
             | This program is distributed in the hope that it   |
             | will be useful, but WITHOUT ANY WARRANTY; without |
             | even the implied warranty of MERCHANTABILITY or   |
             | FITNESS FOR A PARTICULAR PURPOSE. See the GNU     |
             | General Public License for more details.          |
             |                                                   |
             | You should have received a copy of the GNU General|
             | Public License along with this program; if not,   |
             | write to the Free Software Foundation, Inc.,      |
             | 675 Mass Ave, Cambridge, MA 02139, USA.           |
             |                                                   |
             +---------------------------------------------------+
             |    Execution started on 14Jul2022 at 18:43:11     |
             +---------------------------------------------------+
 
 ******************************************************************************
 * -> Using CODATA 2006 constant values                                       *
 *    (http://physics.nist.gov/cuu/Constants/index.html)                      *
 * -> Using Bohr value from CODATA                                            *
 ******************************************************************************
 

 Running in serial (with parallel executable)

                                    ------
                                    SYSTEM
                                    ------

                              Lattice Vectors (Ang)
                    a_1    -2.698804   0.000000   2.698804
                    a_2     0.000000   2.698804   2.698804
                    a_3    -2.698804   2.698804   0.000000

                   Unit Cell Volume:      39.31370  (Ang^3)

                        Reciprocal-Space Vectors (Ang^-1)
                    b_1    -1.164069  -1.164069   1.164069
                    b_2     1.164069   1.164069   1.164069
                    b_3    -1.164069   1.164069  -1.164069
  
 *----------------------------------------------------------------------------*
 |   Site       Fractional Coordinate          Cartesian Coordinate (Ang)     |
 +----------------------------------------------------------------------------+
 | Si   1  -0.25000   0.75000  -0.25000   |    1.34940   1.34940   1.34940    |
 | Si   2   0.00000   0.00000   0.00000   |    0.00000   0.00000   0.00000    |
 *----------------------------------------------------------------------------*
                                ------------
                                K-POINT GRID
                                ------------
  
             Grid size =  4 x  4 x  4      Total points =   64
  
  
 *---------------------------------- MAIN ------------------------------------*
 |  Number of Wannier Functions               :                 8             |
 |  Number of Objective Wannier Functions     :                 8             |
 |  Number of input Bloch states              :                12             |
 |  Output verbosity (1=low, 5=high)          :                 1             |
 |  Timing Level (1=low, 5=high)              :                 1             |
 |  Optimisation (0=memory, 3=speed)          :                 3             |
 |  Length Unit                               :               Ang             |
 |  Post-processing setup (write *.nnkp)      :                 F             |
 |  Using Gamma-only branch of algorithms     :                 F             |
 *----------------------------------------------------------------------------*
 *------------------------------- WANNIERISE ---------------------------------*
 |  Total number of iterations                :               200             |
 |  Number of CG steps before reset           :                 5             |
 |  Trial step length for line search         :             2.000             |
 |  Convergence tolerence                     :         0.100E-09             |
 |  Convergence window                        :                -1             |
 |  Iterations between writing output         :                 1             |
 |  Iterations between backing up to disk     :               100             |
 |  Write r^2_nm to file                      :                 F             |
 |  Write xyz WF centres to file              :                 F             |
 |  Write on-site energies <0n|H|0n> to file  :                 F             |
 |  Use guiding centre to control phases      :                 F             |
 |  Use phases for initial projections        :                 F             |
 *----------------------------------------------------------------------------*
 *------------------------------- DISENTANGLE --------------------------------*
 |  Using band disentanglement                :                 T             |
 |  Total number of iterations                :              5000             |
 |  Mixing ratio                              :             0.500             |
 |  Convergence tolerence                     :         1.000E-10             |
 |  Convergence window                        :                 3             |
 *----------------------------------------------------------------------------*
 *-------------------------------- PLOTTING ----------------------------------*
 |  Plotting interpolated bandstructure       :                 T             |
 |   Number of K-path sections                :                 4             |
 |   Divisions along first K-path section     :               100             |
 |   Output format                            :           gnuplot             |
 |   Output mode                              :               s-k             |
 *----------------------------------------------------------------------------*
 |   K-space path sections:                                                   |
 |    From: L       0.500  0.500  0.500     To: G       0.000  0.000  0.000   |
 |    From: G       0.000  0.000  0.000     To: X       0.500  0.000  0.500   |
 |    From: X       0.500 -0.500  0.000     To: K       0.375 -0.375  0.000   |
 |    From: K       0.375 -0.375  0.000     To: G       0.000  0.000  0.000   |
 *----------------------------------------------------------------------------*
 Time to read parameters        0.023 (sec)

 *---------------------------------- K-MESH ----------------------------------*
 +----------------------------------------------------------------------------+
 |                    Distance to Nearest-Neighbour Shells                    |
 |                    ------------------------------------                    |
 |          Shell             Distance (Ang^-1)          Multiplicity         |
 |          -----             -----------------          ------------         |
 |             1                   0.504056                      8            |
 |             2                   0.582034                      6            |
 |             3                   0.823121                     12            |
 |             4                   0.965195                     24            |
 |             5                   1.008113                      8            |
 |             6                   1.164069                      6            |
 |             7                   1.268514                     24            |
 |             8                   1.301468                     24            |
 |             9                   1.425687                     24            |
 |            10                   1.512169                     32            |
 |            11                   1.646242                     12            |
 |            12                   1.721681                     48            |
 |            13                   1.746103                     30            |
 |            14                   1.840554                     24            |
 |            15                   1.908327                     24            |
 |            16                   1.930389                     24            |
 |            17                   2.016226                      8            |
 |            18                   2.078278                     48            |
 |            19                   2.098554                     24            |
 |            20                   2.177773                     48            |
 |            21                   2.235345                     72            |
 |            22                   2.328137                      6            |
 |            23                   2.382078                     24            |
 |            24                   2.399789                     48            |
 |            25                   2.469362                     36            |
 |            26                   2.520282                     56            |
 |            27                   2.537029                     24            |
 |            28                   2.602936                     24            |
 |            29                   2.651292                     72            |
 |            30                   2.667216                     48            |
 |            31                   2.729983                     24            |
 |            32                   2.776127                     48            |
 |            33                   2.851374                     24            |
 |            34                   2.895584                     72            |
 |            35                   2.910171                     30            |
 |            36                   2.967804                     72            |
 +----------------------------------------------------------------------------+
 | The b-vectors are chosen automatically                                     |
 | The following shells are used:   1                                         |
 +----------------------------------------------------------------------------+
 |                        Shell   # Nearest-Neighbours                        |
 |                        -----   --------------------                        |
 |                          1               8                                 |
 +----------------------------------------------------------------------------+
 | Completeness relation is fully satisfied [Eq. (B1), PRB 56, 12847 (1997)]  |
 +----------------------------------------------------------------------------+
 |                  b_k Vectors (Ang^-1) and Weights (Ang^2)                  |
 |                  ----------------------------------------                  |
 |            No.         b_k(x)      b_k(y)      b_k(z)        w_b           |
 |            ---        --------------------------------     --------        |
 |             1        -0.291017    0.291017   -0.291017     1.475954        |
 |             2         0.291017    0.291017    0.291017     1.475954        |
 |             3        -0.291017   -0.291017    0.291017     1.475954        |
 |             4        -0.291017    0.291017    0.291017     1.475954        |
 |             5         0.291017   -0.291017    0.291017     1.475954        |
 |             6        -0.291017   -0.291017   -0.291017     1.475954        |
 |             7         0.291017    0.291017   -0.291017     1.475954        |
 |             8         0.291017   -0.291017   -0.291017     1.475954        |
 +----------------------------------------------------------------------------+
 |                           b_k Directions (Ang^-1)                          |
 |                           -----------------------                          |
 |            No.           x           y           z                         |
 |            ---        --------------------------------                     |
 |             1        -0.291017    0.291017   -0.291017                     |
 |             2         0.291017    0.291017    0.291017                     |
 |             3        -0.291017   -0.291017    0.291017                     |
 |             4        -0.291017    0.291017    0.291017                     |
 +----------------------------------------------------------------------------+
  
 Time to get kmesh              0.052 (sec)
 *============================================================================*
 |                              MEMORY ESTIMATE                               |
 |         Maximum RAM allocated during each phase of the calculation         |
 *============================================================================*
 |                        Disentanglement            1.92 Mb                  |
 |                            Wannierise:            1.54 Mb                  |
 |                          plot_wannier:            1.54 Mb                  |
 *----------------------------------------------------------------------------*
  
 Starting a new Wannier90 calculation ...


 Reading overlaps from silicon.mmn    :  Created on  6Jun2022 at 20:30: 3

 Reading projections from silicon.amn :  Created on  6Jun2022 at 20:30: 1

 Time to read overlaps          0.084 (sec)

 *------------------------------- DISENTANGLE --------------------------------*
 +----------------------------------------------------------------------------+
 |                              Energy  Windows                               |
 |                              ---------------                               |
 |                   Outer:   -5.69829  to   17.00000  (eV)                   |
 |                   Inner:   -5.69829  to   10.00000  (eV)                   |
 +----------------------------------------------------------------------------+
   Number of target bands to extract:    8

                   Unitarised projection of Wannier functions                  
                   ------------------------------------------                  
   A_mn = <psi_m|g_n> --> S = A.A^+ --> U = S^-1/2.A
   In dis_project... done
   Using an inner window (linner = T)
   In dis_proj_froz... done

                   Extraction of optimally-connected subspace                  
                   ------------------------------------------                  
 +---------------------------------------------------------------------+<-- DIS
 |  Iter     Omega_I(i-1)      Omega_I(i)      Delta (frac.)    Time   |<-- DIS
 +---------------------------------------------------------------------+<-- DIS
       1      13.13537388      12.65038547       3.834E-02      0.00    <-- DIS
       2      12.61321418      12.62720095      -1.108E-03      0.00    <-- DIS
       3      12.59792362      12.61585182      -1.421E-03      0.00    <-- DIS
       4      12.58896977      12.60923116      -1.607E-03      0.00    <-- DIS
       5      12.58522922      12.60524557      -1.588E-03      0.01    <-- DIS
       6      12.58460070      12.60283352      -1.447E-03      0.01    <-- DIS
       7      12.58556053      12.60137005      -1.255E-03      0.01    <-- DIS
       8      12.58719285      12.60048005      -1.054E-03      0.01    <-- DIS
       9      12.58899684      12.59993764      -8.683E-04      0.01    <-- DIS
      10      12.59072167      12.59960648      -7.052E-04      0.01    <-- DIS
      11      12.59225767      12.59940401      -5.672E-04      0.02    <-- DIS
      12      12.59357076      12.59928007      -4.531E-04      0.02    <-- DIS
      13      12.59466492      12.59920413      -3.603E-04      0.02    <-- DIS
      14      12.59556133      12.59915758      -2.854E-04      0.02    <-- DIS
      15      12.59628719      12.59912902      -2.256E-04      0.02    <-- DIS
      16      12.59687011      12.59911150      -1.779E-04      0.02    <-- DIS
      17      12.59733547      12.59910074      -1.401E-04      0.03    <-- DIS
      18      12.59770535      12.59909414      -1.102E-04      0.03    <-- DIS
      19      12.59799837      12.59909008      -8.665E-05      0.03    <-- DIS
      20      12.59822995      12.59908759      -6.807E-05      0.03    <-- DIS
      21      12.59841263      12.59908606      -5.345E-05      0.03    <-- DIS
      22      12.59855652      12.59908512      -4.196E-05      0.03    <-- DIS
      23      12.59866975      12.59908454      -3.292E-05      0.04    <-- DIS
      24      12.59875877      12.59908419      -2.583E-05      0.04    <-- DIS
      25      12.59882871      12.59908397      -2.026E-05      0.04    <-- DIS
      26      12.59888364      12.59908384      -1.589E-05      0.04    <-- DIS
      27      12.59892676      12.59908375      -1.246E-05      0.04    <-- DIS
      28      12.59896059      12.59908370      -9.771E-06      0.04    <-- DIS
      29      12.59898714      12.59908367      -7.662E-06      0.04    <-- DIS
      30      12.59900797      12.59908365      -6.007E-06      0.05    <-- DIS
      31      12.59902430      12.59908364      -4.710E-06      0.05    <-- DIS
      32      12.59903711      12.59908363      -3.693E-06      0.05    <-- DIS
      33      12.59904716      12.59908363      -2.895E-06      0.05    <-- DIS
      34      12.59905503      12.59908363      -2.270E-06      0.05    <-- DIS
      35      12.59906121      12.59908362      -1.779E-06      0.05    <-- DIS
      36      12.59906605      12.59908362      -1.395E-06      0.06    <-- DIS
      37      12.59906985      12.59908362      -1.093E-06      0.06    <-- DIS
      38      12.59907282      12.59908362      -8.572E-07      0.06    <-- DIS
      39      12.59907516      12.59908362      -6.720E-07      0.06    <-- DIS
      40      12.59907698      12.59908362      -5.268E-07      0.06    <-- DIS
      41      12.59907842      12.59908362      -4.130E-07      0.06    <-- DIS
      42      12.59907954      12.59908362      -3.238E-07      0.07    <-- DIS
      43      12.59908042      12.59908362      -2.538E-07      0.07    <-- DIS
      44      12.59908112      12.59908362      -1.990E-07      0.07    <-- DIS
      45      12.59908166      12.59908362      -1.560E-07      0.07    <-- DIS
      46      12.59908208      12.59908362      -1.223E-07      0.07    <-- DIS
      47      12.59908241      12.59908362      -9.585E-08      0.07    <-- DIS
      48      12.59908268      12.59908362      -7.514E-08      0.07    <-- DIS
      49      12.59908288      12.59908362      -5.890E-08      0.08    <-- DIS
      50      12.59908304      12.59908362      -4.618E-08      0.08    <-- DIS
      51      12.59908317      12.59908362      -3.620E-08      0.08    <-- DIS
      52      12.59908326      12.59908362      -2.838E-08      0.08    <-- DIS
      53      12.59908334      12.59908362      -2.225E-08      0.08    <-- DIS
      54      12.59908340      12.59908362      -1.744E-08      0.08    <-- DIS
      55      12.59908345      12.59908362      -1.367E-08      0.09    <-- DIS
      56      12.59908349      12.59908362      -1.072E-08      0.09    <-- DIS
      57      12.59908352      12.59908362      -8.401E-09      0.09    <-- DIS
      58      12.59908354      12.59908362      -6.586E-09      0.09    <-- DIS
      59      12.59908356      12.59908362      -5.163E-09      0.09    <-- DIS
      60      12.59908357      12.59908362      -4.047E-09      0.09    <-- DIS
      61      12.59908358      12.59908362      -3.173E-09      0.10    <-- DIS
      62      12.59908359      12.59908362      -2.487E-09      0.10    <-- DIS
      63      12.59908360      12.59908362      -1.950E-09      0.10    <-- DIS
      64      12.59908360      12.59908362      -1.528E-09      0.10    <-- DIS
      65      12.59908361      12.59908362      -1.198E-09      0.10    <-- DIS
      66      12.59908361      12.59908362      -9.393E-10      0.10    <-- DIS
      67      12.59908361      12.59908362      -7.363E-10      0.10    <-- DIS
      68      12.59908361      12.59908362      -5.772E-10      0.11    <-- DIS
      69      12.59908362      12.59908362      -4.525E-10      0.11    <-- DIS
      70      12.59908362      12.59908362      -3.547E-10      0.11    <-- DIS
      71      12.59908362      12.59908362      -2.781E-10      0.11    <-- DIS
      72      12.59908362      12.59908362      -2.180E-10      0.11    <-- DIS
      73      12.59908362      12.59908362      -1.709E-10      0.11    <-- DIS
      74      12.59908362      12.59908362      -1.340E-10      0.12    <-- DIS
      75      12.59908362      12.59908362      -1.050E-10      0.12    <-- DIS
      76      12.59908362      12.59908362      -8.233E-11      0.12    <-- DIS
      77      12.59908362      12.59908362      -6.454E-11      0.12    <-- DIS
      78      12.59908362      12.59908362      -5.059E-11      0.12    <-- DIS

             <<<      Delta < 1.000E-10  over  3 iterations     >>>
             <<< Disentanglement convergence criteria satisfied >>>

        Final Omega_I    12.59908362 (Ang^2)

 +----------------------------------------------------------------------------+

 Time to disentangle bands      0.130 (sec)

 Writing checkpoint file silicon.chk... done


 *------------------------------- WANNIERISE ---------------------------------*
 +--------------------------------------------------------------------+<-- CONV
 | Iter  Delta Spread     RMS Gradient      Spread (Ang^2)      Time  |<-- CONV
 +--------------------------------------------------------------------+<-- CONV

 ------------------------------------------------------------------------------
 Initial State
  WF centre and spread    1  (  1.349402,  1.349402,  1.349402 )     2.13418174
  WF centre and spread    2  (  1.349402,  1.349402,  1.349402 )     2.78783491
  WF centre and spread    3  (  1.349402,  1.349402,  1.349402 )     2.78783491
  WF centre and spread    4  (  1.349402,  1.349402,  1.349402 )     2.78783493
  WF centre and spread    5  (  0.000000,  0.000000, -0.000000 )     2.13418174
  WF centre and spread    6  ( -0.000000, -0.000000, -0.000000 )     2.78783491
  WF centre and spread    7  ( -0.000000, -0.000000, -0.000000 )     2.78783491
  WF centre and spread    8  (  0.000000, -0.000000,  0.000000 )     2.78783491
  Sum of centres and spreads (  5.397608,  5.397607,  5.397608 )    20.99537297

      0     0.210E+02     0.0000000000       20.9953729674       0.13  <-- CONV
        O_D=      0.1778660 O_OD=      8.2184233 O_TOT=     20.9953730 <-- SPRD
 ------------------------------------------------------------------------------
 Cycle:      1
  WF centre and spread    1  (  1.349402,  1.349402,  1.349402 )     1.90512511
  WF centre and spread    2  (  1.349402,  1.349402,  1.349402 )     2.80953183
  WF centre and spread    3  (  1.349402,  1.349402,  1.349402 )     2.80953183
  WF centre and spread    4  (  1.349402,  1.349402,  1.349402 )     2.80953185
  WF centre and spread    5  (  0.000000,  0.000000, -0.000000 )     1.90512511
  WF centre and spread    6  ( -0.000000, -0.000000, -0.000000 )     2.80953184
  WF centre and spread    7  ( -0.000000, -0.000000, -0.000000 )     2.80953183
  WF centre and spread    8  (  0.000000, -0.000000,  0.000000 )     2.80953183
  Sum of centres and spreads (  5.397608,  5.397607,  5.397608 )    20.66744123

      1    -0.328E+00     0.4652503893       20.6674412327       0.13  <-- CONV
        O_D=      0.1760333 O_OD=      7.8923243 O_TOT=     20.6674412 <-- SPRD
 Delta: O_D= -0.1832700E-02 O_OD= -0.3260990E+00 O_TOT= -0.3279317E+00 <-- DLTA
 ------------------------------------------------------------------------------
 Cycle:      2
  WF centre and spread    1  (  1.349402,  1.349402,  1.349402 )     1.74805619
  WF centre and spread    2  (  1.349402,  1.349402,  1.349402 )     2.84033615
  WF centre and spread    3  (  1.349402,  1.349402,  1.349402 )     2.84033615
  WF centre and spread    4  (  1.349402,  1.349402,  1.349402 )     2.84033617
  WF centre and spread    5  (  0.000000,  0.000000, -0.000000 )     1.74805620
  WF centre and spread    6  ( -0.000000, -0.000000, -0.000000 )     2.84033615
  WF centre and spread    7  ( -0.000000, -0.000000, -0.000000 )     2.84033615
  WF centre and spread    8  (  0.000000, -0.000000,  0.000000 )     2.84033614
  Sum of centres and spreads (  5.397608,  5.397607,  5.397608 )    20.53812930

      2    -0.129E+00     0.3066548347       20.5381293028       0.14  <-- CONV
        O_D=      0.1700787 O_OD=      7.7689670 O_TOT=     20.5381293 <-- SPRD
 Delta: O_D= -0.5954584E-02 O_OD= -0.1233573E+00 O_TOT= -0.1293119E+00 <-- DLTA
 ------------------------------------------------------------------------------
 Cycle:      3
  WF centre and spread    1  (  1.349402,  1.349402,  1.349402 )     1.69138903
  WF centre and spread    2  (  1.349402,  1.349402,  1.349402 )     2.85223517
  WF centre and spread    3  (  1.349402,  1.349402,  1.349402 )     2.85223516
  WF centre and spread    4  (  1.349402,  1.349402,  1.349402 )     2.85223518
  WF centre and spread    5  (  0.000000,  0.000000, -0.000000 )     1.69138903
  WF centre and spread    6  ( -0.000000, -0.000000, -0.000000 )     2.85223517
  WF centre and spread    7  ( -0.000000, -0.000000, -0.000000 )     2.85223516
  WF centre and spread    8  (  0.000000, -0.000000,  0.000000 )     2.85223516
  Sum of centres and spreads (  5.397608,  5.397607,  5.397608 )    20.49618905

      3    -0.419E-01     0.2051209295       20.4961890484       0.14  <-- CONV
        O_D=      0.1734113 O_OD=      7.7236941 O_TOT=     20.4961890 <-- SPRD
 Delta: O_D=  0.3332575E-02 O_OD= -0.4527283E-01 O_TOT= -0.4194025E-01 <-- DLTA
 ------------------------------------------------------------------------------
 Cycle:      4
  WF centre and spread    1  (  1.349402,  1.349402,  1.349402 )     1.68662784
  WF centre and spread    2  (  1.349402,  1.349402,  1.349402 )     2.85309911
  WF centre and spread    3  (  1.349402,  1.349402,  1.349402 )     2.85309911
  WF centre and spread    4  (  1.349402,  1.349402,  1.349402 )     2.85309913
  WF centre and spread    5  (  0.000000,  0.000000, -0.000000 )     1.68662785
  WF centre and spread    6  ( -0.000000, -0.000000, -0.000000 )     2.85309912
  WF centre and spread    7  ( -0.000000, -0.000000, -0.000000 )     2.85309911
  WF centre and spread    8  (  0.000000, -0.000000,  0.000000 )     2.85309911
  Sum of centres and spreads (  5.397608,  5.397607,  5.397608 )    20.49185037

      4    -0.434E-02     0.0758750809       20.4918503662       0.15  <-- CONV
        O_D=      0.1732059 O_OD=      7.7195609 O_TOT=     20.4918504 <-- SPRD
 Delta: O_D= -0.2054394E-03 O_OD= -0.4133243E-02 O_TOT= -0.4338682E-02 <-- DLTA
 ------------------------------------------------------------------------------
 Cycle:      5
  WF centre and spread    1  (  1.349402,  1.349402,  1.349402 )     1.68718012
  WF centre and spread    2  (  1.349402,  1.349402,  1.349402 )     2.85281020
  WF centre and spread    3  (  1.349402,  1.349402,  1.349402 )     2.85281019
  WF centre and spread    4  (  1.349402,  1.349402,  1.349402 )     2.85281021
  WF centre and spread    5  (  0.000000,  0.000000, -0.000000 )     1.68718012
  WF centre and spread    6  ( -0.000000, -0.000000, -0.000000 )     2.85281020
  WF centre and spread    7  ( -0.000000, -0.000000, -0.000000 )     2.85281019
  WF centre and spread    8  (  0.000000, -0.000000,  0.000000 )     2.85281019
  Sum of centres and spreads (  5.397608,  5.397607,  5.397608 )    20.49122143

      5    -0.629E-03     0.0267195033       20.4912214333       0.15  <-- CONV
        O_D=      0.1727874 O_OD=      7.7193504 O_TOT=     20.4912214 <-- SPRD
 Delta: O_D= -0.4184268E-03 O_OD= -0.2105061E-03 O_TOT= -0.6289329E-03 <-- DLTA
 ------------------------------------------------------------------------------
 Cycle:      6
  WF centre and spread    1  (  1.349402,  1.349402,  1.349402 )     1.68790410
  WF centre and spread    2  (  1.349402,  1.349402,  1.349402 )     2.85255136
  WF centre and spread    3  (  1.349402,  1.349402,  1.349402 )     2.85255135
  WF centre and spread    4  (  1.349402,  1.349402,  1.349402 )     2.85255137
  WF centre and spread    5  (  0.000000,  0.000000,  0.000000 )     1.68790410
  WF centre and spread    6  ( -0.000000, -0.000000, -0.000000 )     2.85255136
  WF centre and spread    7  ( -0.000000, -0.000000, -0.000000 )     2.85255135
  WF centre and spread    8  (  0.000000, -0.000000,  0.000000 )     2.85255135
  Sum of centres and spreads (  5.397608,  5.397607,  5.397608 )    20.49111634

      6    -0.105E-03     0.0108842185       20.4911163424       0.16  <-- CONV
        O_D=      0.1725645 O_OD=      7.7194682 O_TOT=     20.4911163 <-- SPRD
 Delta: O_D= -0.2229121E-03 O_OD=  0.1178212E-03 O_TOT= -0.1050909E-03 <-- DLTA
 ------------------------------------------------------------------------------
 Cycle:      7
  WF centre and spread    1  (  1.349402,  1.349402,  1.349402 )     1.68814300
  WF centre and spread    2  (  1.349402,  1.349402,  1.349402 )     2.85246904
  WF centre and spread    3  (  1.349402,  1.349402,  1.349402 )     2.85246903
  WF centre and spread    4  (  1.349402,  1.349402,  1.349402 )     2.85246905
  WF centre and spread    5  (  0.000000,  0.000000,  0.000000 )     1.68814300
  WF centre and spread    6  ( -0.000000, -0.000000, -0.000000 )     2.85246904
  WF centre and spread    7  ( -0.000000, -0.000000, -0.000000 )     2.85246903
  WF centre and spread    8  (  0.000000, -0.000000,  0.000000 )     2.85246903
  Sum of centres and spreads (  5.397608,  5.397607,  5.397608 )    20.49110023

      7    -0.161E-04     0.0044177164       20.4911002341       0.17  <-- CONV
        O_D=      0.1726068 O_OD=      7.7194098 O_TOT=     20.4911002 <-- SPRD
 Delta: O_D=  0.4225566E-04 O_OD= -0.5836404E-04 O_TOT= -0.1610837E-04 <-- DLTA
 ------------------------------------------------------------------------------
 Cycle:      8
  WF centre and spread    1  (  1.349402,  1.349402,  1.349402 )     1.68837765
  WF centre and spread    2  (  1.349402,  1.349402,  1.349402 )     2.85239026
  WF centre and spread    3  (  1.349402,  1.349402,  1.349402 )     2.85239025
  WF centre and spread    4  (  1.349402,  1.349402,  1.349402 )     2.85239027
  WF centre and spread    5  (  0.000000,  0.000000,  0.000000 )     1.68837765
  WF centre and spread    6  ( -0.000000, -0.000000, -0.000000 )     2.85239026
  WF centre and spread    7  ( -0.000000, -0.000000, -0.000000 )     2.85239026
  WF centre and spread    8  (  0.000000, -0.000000,  0.000000 )     2.85239025
  Sum of centres and spreads (  5.397608,  5.397607,  5.397608 )    20.49109687

      8    -0.336E-05     0.0019056440       20.4910968723       0.17  <-- CONV
        O_D=      0.1726280 O_OD=      7.7193852 O_TOT=     20.4910969 <-- SPRD
 Delta: O_D=  0.2125146E-04 O_OD= -0.2461319E-04 O_TOT= -0.3361728E-05 <-- DLTA
 ------------------------------------------------------------------------------
 Cycle:      9
  WF centre and spread    1  (  1.349402,  1.349402,  1.349402 )     1.68852793
  WF centre and spread    2  (  1.349402,  1.349402,  1.349402 )     2.85234006
  WF centre and spread    3  (  1.349402,  1.349402,  1.349402 )     2.85234005
  WF centre and spread    4  (  1.349402,  1.349402,  1.349402 )     2.85234008
  WF centre and spread    5  (  0.000000,  0.000000,  0.000000 )     1.68852793
  WF centre and spread    6  ( -0.000000, -0.000000, -0.000000 )     2.85234007
  WF centre and spread    7  ( -0.000000, -0.000000, -0.000000 )     2.85234006
  WF centre and spread    8  (  0.000000, -0.000000,  0.000000 )     2.85234006
  Sum of centres and spreads (  5.397608,  5.397607,  5.397608 )    20.49109623

      9    -0.642E-06     0.0007996517       20.4910962307       0.18  <-- CONV
        O_D=      0.1726303 O_OD=      7.7193823 O_TOT=     20.4910962 <-- SPRD
 Delta: O_D=  0.2307776E-05 O_OD= -0.2949435E-05 O_TOT= -0.6416591E-06 <-- DLTA
 ------------------------------------------------------------------------------
 Cycle:     10
  WF centre and spread    1  (  1.349402,  1.349402,  1.349402 )     1.68860834
  WF centre and spread    2  (  1.349402,  1.349402,  1.349402 )     2.85231323
  WF centre and spread    3  (  1.349402,  1.349402,  1.349402 )     2.85231322
  WF centre and spread    4  (  1.349402,  1.349402,  1.349402 )     2.85231325
  WF centre and spread    5  (  0.000000,  0.000000,  0.000000 )     1.68860834
  WF centre and spread    6  ( -0.000000, -0.000000, -0.000000 )     2.85231324
  WF centre and spread    7  ( -0.000000, -0.000000, -0.000000 )     2.85231323
  WF centre and spread    8  (  0.000000, -0.000000,  0.000000 )     2.85231323
  Sum of centres and spreads (  5.397608,  5.397607,  5.397608 )    20.49109608

     10    -0.150E-06     0.0004005195       20.4910960808       0.18  <-- CONV
        O_D=      0.1726303 O_OD=      7.7193822 O_TOT=     20.4910961 <-- SPRD
 Delta: O_D= -0.6535468E-07 O_OD= -0.8450805E-07 O_TOT= -0.1498627E-06 <-- DLTA
 ------------------------------------------------------------------------------
 Cycle:     11
  WF centre and spread    1  (  1.349402,  1.349402,  1.349402 )     1.68866215
  WF centre and spread    2  (  1.349402,  1.349402,  1.349402 )     2.85229529
  WF centre and spread    3  (  1.349402,  1.349402,  1.349402 )     2.85229528
  WF centre and spread    4  (  1.349402,  1.349402,  1.349402 )     2.85229530
  WF centre and spread    5  (  0.000000,  0.000000,  0.000000 )     1.68866215
  WF centre and spread    6  ( -0.000000, -0.000000, -0.000000 )     2.85229529
  WF centre and spread    7  ( -0.000000, -0.000000, -0.000000 )     2.85229528
  WF centre and spread    8  (  0.000000, -0.000000,  0.000000 )     2.85229528
  Sum of centres and spreads (  5.397608,  5.397607,  5.397608 )    20.49109603

     11    -0.507E-07     0.0002021765       20.4910960301       0.19  <-- CONV
        O_D=      0.1726292 O_OD=      7.7193832 O_TOT=     20.4910960 <-- SPRD
 Delta: O_D= -0.1051189E-05 O_OD=  0.1000527E-05 O_TOT= -0.5066204E-07 <-- DLTA
 ------------------------------------------------------------------------------
 Cycle:     12
  WF centre and spread    1  (  1.349402,  1.349402,  1.349402 )     1.68869300
  WF centre and spread    2  (  1.349402,  1.349402,  1.349402 )     2.85228500
  WF centre and spread    3  (  1.349402,  1.349402,  1.349402 )     2.85228499
  WF centre and spread    4  (  1.349402,  1.349402,  1.349402 )     2.85228501
  WF centre and spread    5  (  0.000000,  0.000000,  0.000000 )     1.68869300
  WF centre and spread    6  ( -0.000000, -0.000000, -0.000000 )     2.85228501
  WF centre and spread    7  ( -0.000000, -0.000000, -0.000000 )     2.85228500
  WF centre and spread    8  (  0.000000, -0.000000,  0.000000 )     2.85228499
  Sum of centres and spreads (  5.397608,  5.397607,  5.397608 )    20.49109601

     12    -0.200E-07     0.0001275675       20.4910960102       0.19  <-- CONV
        O_D=      0.1726268 O_OD=      7.7193856 O_TOT=     20.4910960 <-- SPRD
 Delta: O_D= -0.2466973E-05 O_OD=  0.2447010E-05 O_TOT= -0.1996315E-07 <-- DLTA
 ------------------------------------------------------------------------------
 Cycle:     13
  WF centre and spread    1  (  1.349402,  1.349402,  1.349402 )     1.68869287
  WF centre and spread    2  (  1.349402,  1.349402,  1.349402 )     2.85228505
  WF centre and spread    3  (  1.349402,  1.349402,  1.349402 )     2.85228504
  WF centre and spread    4  (  1.349402,  1.349402,  1.349402 )     2.85228506
  WF centre and spread    5  (  0.000000,  0.000000,  0.000000 )     1.68869287
  WF centre and spread    6  ( -0.000000, -0.000000, -0.000000 )     2.85228505
  WF centre and spread    7  ( -0.000000, -0.000000, -0.000000 )     2.85228504
  WF centre and spread    8  (  0.000000, -0.000000,  0.000000 )     2.85228504
  Sum of centres and spreads (  5.397608,  5.397607,  5.397608 )    20.49109601

     13    -0.262E-08     0.0000549495       20.4910960076       0.20  <-- CONV
        O_D=      0.1726265 O_OD=      7.7193859 O_TOT=     20.4910960 <-- SPRD
 Delta: O_D= -0.2854341E-06 O_OD=  0.2828135E-06 O_TOT= -0.2620556E-08 <-- DLTA
 ------------------------------------------------------------------------------
 Cycle:     14
  WF centre and spread    1  (  1.349402,  1.349402,  1.349402 )     1.68869340
  WF centre and spread    2  (  1.349402,  1.349402,  1.349402 )     2.85228487
  WF centre and spread    3  (  1.349402,  1.349402,  1.349402 )     2.85228486
  WF centre and spread    4  (  1.349402,  1.349402,  1.349402 )     2.85228488
  WF centre and spread    5  (  0.000000,  0.000000,  0.000000 )     1.68869340
  WF centre and spread    6  ( -0.000000, -0.000000, -0.000000 )     2.85228487
  WF centre and spread    7  ( -0.000000, -0.000000, -0.000000 )     2.85228486
  WF centre and spread    8  (  0.000000, -0.000000,  0.000000 )     2.85228486
  Sum of centres and spreads (  5.397608,  5.397607,  5.397608 )    20.49109601

     14    -0.339E-09     0.0000204205       20.4910960072       0.20  <-- CONV
        O_D=      0.1726262 O_OD=      7.7193862 O_TOT=     20.4910960 <-- SPRD
 Delta: O_D= -0.2806587E-06 O_OD=  0.2803200E-06 O_TOT= -0.3387228E-09 <-- DLTA
 ------------------------------------------------------------------------------
 Cycle:     15
  WF centre and spread    1  (  1.349402,  1.349402,  1.349402 )     1.68869850
  WF centre and spread    2  (  1.349402,  1.349402,  1.349402 )     2.85228317
  WF centre and spread    3  (  1.349402,  1.349402,  1.349402 )     2.85228316
  WF centre and spread    4  (  1.349402,  1.349402,  1.349402 )     2.85228318
  WF centre and spread    5  (  0.000000,  0.000000,  0.000000 )     1.68869850
  WF centre and spread    6  ( -0.000000, -0.000000, -0.000000 )     2.85228317
  WF centre and spread    7  ( -0.000000, -0.000000, -0.000000 )     2.85228316
  WF centre and spread    8  (  0.000000, -0.000000,  0.000000 )     2.85228316
  Sum of centres and spreads (  5.397608,  5.397607,  5.397608 )    20.49109601

     15     0.364E-08     0.0000114495       20.4910960109       0.21  <-- CONV
        O_D=      0.1726248 O_OD=      7.7193876 O_TOT=     20.4910960 <-- SPRD
 Delta: O_D= -0.1352080E-05 O_OD=  0.1355723E-05 O_TOT=  0.3642896E-08 <-- DLTA
 ------------------------------------------------------------------------------
 Cycle:     16
  WF centre and spread    1  (  1.349402,  1.349402,  1.349402 )     1.68869865
  WF centre and spread    2  (  1.349402,  1.349402,  1.349402 )     2.85228312
  WF centre and spread    3  (  1.349402,  1.349402,  1.349402 )     2.85228311
  WF centre and spread    4  (  1.349402,  1.349402,  1.349402 )     2.85228313
  WF centre and spread    5  (  0.000000,  0.000000,  0.000000 )     1.68869865
  WF centre and spread    6  ( -0.000000, -0.000000, -0.000000 )     2.85228312
  WF centre and spread    7  ( -0.000000, -0.000000, -0.000000 )     2.85228311
  WF centre and spread    8  (  0.000000, -0.000000,  0.000000 )     2.85228311
  Sum of centres and spreads (  5.397608,  5.397607,  5.397608 )    20.49109601

     16    -0.309E-08     0.0000898547       20.4910960078       0.21  <-- CONV
        O_D=      0.1726251 O_OD=      7.7193873 O_TOT=     20.4910960 <-- SPRD
 Delta: O_D=  0.2358246E-06 O_OD= -0.2389132E-06 O_TOT= -0.3088587E-08 <-- DLTA
 ------------------------------------------------------------------------------
 Cycle:     17
  WF centre and spread    1  (  1.349402,  1.349402,  1.349402 )     1.68869894
  WF centre and spread    2  (  1.349402,  1.349402,  1.349402 )     2.85228302
  WF centre and spread    3  (  1.349402,  1.349402,  1.349402 )     2.85228301
  WF centre and spread    4  (  1.349402,  1.349402,  1.349402 )     2.85228303
  WF centre and spread    5  (  0.000000,  0.000000,  0.000000 )     1.68869895
  WF centre and spread    6  ( -0.000000, -0.000000, -0.000000 )     2.85228302
  WF centre and spread    7  ( -0.000000, -0.000000, -0.000000 )     2.85228301
  WF centre and spread    8  (  0.000000, -0.000000,  0.000000 )     2.85228301
  Sum of centres and spreads (  5.397608,  5.397607,  5.397608 )    20.49109601

     17    -0.542E-09     0.0000259553       20.4910960072       0.22  <-- CONV
        O_D=      0.1726255 O_OD=      7.7193869 O_TOT=     20.4910960 <-- SPRD
 Delta: O_D=  0.4357000E-06 O_OD= -0.4362418E-06 O_TOT= -0.5417711E-09 <-- DLTA
 ------------------------------------------------------------------------------
 Cycle:     18
  WF centre and spread    1  (  1.349402,  1.349402,  1.349402 )     1.68869891
  WF centre and spread    2  (  1.349402,  1.349402,  1.349402 )     2.85228303
  WF centre and spread    3  (  1.349402,  1.349402,  1.349402 )     2.85228302
  WF centre and spread    4  (  1.349402,  1.349402,  1.349402 )     2.85228304
  WF centre and spread    5  (  0.000000,  0.000000,  0.000000 )     1.68869891
  WF centre and spread    6  ( -0.000000, -0.000000, -0.000000 )     2.85228303
  WF centre and spread    7  ( -0.000000, -0.000000, -0.000000 )     2.85228303
  WF centre and spread    8  (  0.000000, -0.000000,  0.000000 )     2.85228302
  Sum of centres and spreads (  5.397608,  5.397607,  5.397608 )    20.49109601

     18    -0.127E-09     0.0000144869       20.4910960071       0.22  <-- CONV
        O_D=      0.1726256 O_OD=      7.7193868 O_TOT=     20.4910960 <-- SPRD
 Delta: O_D=  0.9594620E-07 O_OD= -0.9607304E-07 O_TOT= -0.1268390E-09 <-- DLTA
 ------------------------------------------------------------------------------
 Cycle:     19
  WF centre and spread    1  (  1.349402,  1.349402,  1.349402 )     1.68869881
  WF centre and spread    2  (  1.349402,  1.349402,  1.349402 )     2.85228306
  WF centre and spread    3  (  1.349402,  1.349402,  1.349402 )     2.85228305
  WF centre and spread    4  (  1.349402,  1.349402,  1.349402 )     2.85228308
  WF centre and spread    5  (  0.000000,  0.000000,  0.000000 )     1.68869882
  WF centre and spread    6  ( -0.000000, -0.000000, -0.000000 )     2.85228307
  WF centre and spread    7  ( -0.000000, -0.000000, -0.000000 )     2.85228306
  WF centre and spread    8  (  0.000000, -0.000000,  0.000000 )     2.85228306
  Sum of centres and spreads (  5.397608,  5.397607,  5.397608 )    20.49109601

     19    -0.261E-10     0.0000069728       20.4910960071       0.23  <-- CONV
        O_D=      0.1726256 O_OD=      7.7193868 O_TOT=     20.4910960 <-- SPRD
 Delta: O_D=  0.1836234E-07 O_OD= -0.1838843E-07 O_TOT= -0.2608402E-10 <-- DLTA
 ------------------------------------------------------------------------------
 Cycle:     20
  WF centre and spread    1  (  1.349402,  1.349402,  1.349402 )     1.68869880
  WF centre and spread    2  (  1.349402,  1.349402,  1.349402 )     2.85228307
  WF centre and spread    3  (  1.349402,  1.349402,  1.349402 )     2.85228306
  WF centre and spread    4  (  1.349402,  1.349402,  1.349402 )     2.85228308
  WF centre and spread    5  (  0.000000,  0.000000,  0.000000 )     1.68869881
  WF centre and spread    6  ( -0.000000, -0.000000, -0.000000 )     2.85228307
  WF centre and spread    7  ( -0.000000, -0.000000, -0.000000 )     2.85228306
  WF centre and spread    8  (  0.000000, -0.000000,  0.000000 )     2.85228306
  Sum of centres and spreads (  5.397608,  5.397607,  5.397608 )    20.49109601

     20    -0.139E-11     0.0000043250       20.4910960071       0.23  <-- CONV
        O_D=      0.1726256 O_OD=      7.7193868 O_TOT=     20.4910960 <-- SPRD
 Delta: O_D=  0.1434133E-08 O_OD= -0.1435525E-08 O_TOT= -0.1392664E-11 <-- DLTA
 ------------------------------------------------------------------------------
 Cycle:     21
  WF centre and spread    1  (  1.349402,  1.349402,  1.349402 )     1.68869830
  WF centre and spread    2  (  1.349402,  1.349402,  1.349402 )     2.85228323
  WF centre and spread    3  (  1.349402,  1.349402,  1.349402 )     2.85228322
  WF centre and spread    4  (  1.349402,  1.349402,  1.349402 )     2.85228325
  WF centre and spread    5  (  0.000000,  0.000000,  0.000000 )     1.68869831
  WF centre and spread    6  ( -0.000000, -0.000000, -0.000000 )     2.85228324
  WF centre and spread    7  ( -0.000000, -0.000000, -0.000000 )     2.85228323
  WF centre and spread    8  (  0.000000, -0.000000,  0.000000 )     2.85228323
  Sum of centres and spreads (  5.397608,  5.397607,  5.397608 )    20.49109601

     21    -0.126E-10     0.0000041734       20.4910960071       0.24  <-- CONV
        O_D=      0.1726257 O_OD=      7.7193867 O_TOT=     20.4910960 <-- SPRD
 Delta: O_D=  0.6030305E-07 O_OD= -0.6031567E-07 O_TOT= -0.1261924E-10 <-- DLTA
 ------------------------------------------------------------------------------
 Cycle:     22
  WF centre and spread    1  (  1.349402,  1.349402,  1.349402 )     1.68869830
  WF centre and spread    2  (  1.349402,  1.349402,  1.349402 )     2.85228324
  WF centre and spread    3  (  1.349402,  1.349402,  1.349402 )     2.85228323
  WF centre and spread    4  (  1.349402,  1.349402,  1.349402 )     2.85228325
  WF centre and spread    5  (  0.000000,  0.000000,  0.000000 )     1.68869830
  WF centre and spread    6  ( -0.000000, -0.000000, -0.000000 )     2.85228324
  WF centre and spread    7  ( -0.000000, -0.000000, -0.000000 )     2.85228323
  WF centre and spread    8  (  0.000000, -0.000000,  0.000000 )     2.85228323
  Sum of centres and spreads (  5.397608,  5.397607,  5.397608 )    20.49109601

     22    -0.998E-12     0.0000048618       20.4910960071       0.24  <-- CONV
        O_D=      0.1726257 O_OD=      7.7193867 O_TOT=     20.4910960 <-- SPRD
 Delta: O_D=  0.1508298E-08 O_OD= -0.1509298E-08 O_TOT= -0.9983125E-12 <-- DLTA
 ------------------------------------------------------------------------------
 Cycle:     23
  WF centre and spread    1  (  1.349402,  1.349402,  1.349402 )     1.68869828
  WF centre and spread    2  (  1.349402,  1.349402,  1.349402 )     2.85228324
  WF centre and spread    3  (  1.349402,  1.349402,  1.349402 )     2.85228323
  WF centre and spread    4  (  1.349402,  1.349402,  1.349402 )     2.85228325
  WF centre and spread    5  (  0.000000,  0.000000,  0.000000 )     1.68869829
  WF centre and spread    6  ( -0.000000, -0.000000, -0.000000 )     2.85228324
  WF centre and spread    7  ( -0.000000, -0.000000, -0.000000 )     2.85228323
  WF centre and spread    8  (  0.000000, -0.000000,  0.000000 )     2.85228323
  Sum of centres and spreads (  5.397608,  5.397607,  5.397608 )    20.49109601

     23    -0.184E-11     0.0000046982       20.4910960071       0.25  <-- CONV
        O_D=      0.1726257 O_OD=      7.7193867 O_TOT=     20.4910960 <-- SPRD
 Delta: O_D=  0.2884876E-08 O_OD= -0.2886718E-08 O_TOT= -0.1843858E-11 <-- DLTA
 ------------------------------------------------------------------------------
 Cycle:     24
  WF centre and spread    1  (  1.349402,  1.349402,  1.349402 )     1.68869814
  WF centre and spread    2  (  1.349402,  1.349402,  1.349402 )     2.85228329
  WF centre and spread    3  (  1.349402,  1.349402,  1.349402 )     2.85228328
  WF centre and spread    4  (  1.349402,  1.349402,  1.349402 )     2.85228330
  WF centre and spread    5  (  0.000000,  0.000000,  0.000000 )     1.68869814
  WF centre and spread    6  ( -0.000000, -0.000000, -0.000000 )     2.85228329
  WF centre and spread    7  ( -0.000000, -0.000000, -0.000000 )     2.85228328
  WF centre and spread    8  (  0.000000, -0.000000,  0.000000 )     2.85228328
  Sum of centres and spreads (  5.397608,  5.397607,  5.397608 )    20.49109601

     24    -0.110E-10     0.0000043900       20.4910960070       0.25  <-- CONV
        O_D=      0.1726257 O_OD=      7.7193867 O_TOT=     20.4910960 <-- SPRD
 Delta: O_D=  0.2877998E-07 O_OD= -0.2879095E-07 O_TOT= -0.1096367E-10 <-- DLTA
 ------------------------------------------------------------------------------
 Cycle:     25
  WF centre and spread    1  (  1.349402,  1.349402,  1.349402 )     1.68869813
  WF centre and spread    2  (  1.349402,  1.349402,  1.349402 )     2.85228329
  WF centre and spread    3  (  1.349402,  1.349402,  1.349402 )     2.85228328
  WF centre and spread    4  (  1.349402,  1.349402,  1.349402 )     2.85228330
  WF centre and spread    5  (  0.000000,  0.000000,  0.000000 )     1.68869814
  WF centre and spread    6  ( -0.000000, -0.000000, -0.000000 )     2.85228329
  WF centre and spread    7  ( -0.000000, -0.000000, -0.000000 )     2.85228328
  WF centre and spread    8  (  0.000000, -0.000000,  0.000000 )     2.85228328
  Sum of centres and spreads (  5.397608,  5.397607,  5.397608 )    20.49109601

     25    -0.263E-12     0.0000017869       20.4910960070       0.25  <-- CONV
        O_D=      0.1726257 O_OD=      7.7193867 O_TOT=     20.4910960 <-- SPRD
 Delta: O_D=  0.1463993E-08 O_OD= -0.1464256E-08 O_TOT= -0.2629008E-12 <-- DLTA
 ------------------------------------------------------------------------------
 Cycle:     26
  WF centre and spread    1  (  1.349402,  1.349402,  1.349402 )     1.68869812
  WF centre and spread    2  (  1.349402,  1.349402,  1.349402 )     2.85228330
  WF centre and spread    3  (  1.349402,  1.349402,  1.349402 )     2.85228329
  WF centre and spread    4  (  1.349402,  1.349402,  1.349402 )     2.85228331
  WF centre and spread    5  (  0.000000,  0.000000,  0.000000 )     1.68869812
  WF centre and spread    6  ( -0.000000, -0.000000, -0.000000 )     2.85228330
  WF centre and spread    7  ( -0.000000, -0.000000, -0.000000 )     2.85228329
  WF centre and spread    8  (  0.000000, -0.000000,  0.000000 )     2.85228329
  Sum of centres and spreads (  5.397608,  5.397607,  5.397608 )    20.49109601

     26    -0.409E-12     0.0000017149       20.4910960070       0.26  <-- CONV
        O_D=      0.1726257 O_OD=      7.7193867 O_TOT=     20.4910960 <-- SPRD
 Delta: O_D=  0.2133970E-08 O_OD= -0.2134378E-08 O_TOT= -0.4085621E-12 <-- DLTA
 ------------------------------------------------------------------------------
 Cycle:     27
  WF centre and spread    1  (  1.349402,  1.349402,  1.349402 )     1.68869805
  WF centre and spread    2  (  1.349402,  1.349402,  1.349402 )     2.85228332
  WF centre and spread    3  (  1.349402,  1.349402,  1.349402 )     2.85228331
  WF centre and spread    4  (  1.349402,  1.349402,  1.349402 )     2.85228333
  WF centre and spread    5  (  0.000000,  0.000000,  0.000000 )     1.68869805
  WF centre and spread    6  ( -0.000000, -0.000000, -0.000000 )     2.85228332
  WF centre and spread    7  ( -0.000000, -0.000000, -0.000000 )     2.85228331
  WF centre and spread    8  (  0.000000, -0.000000,  0.000000 )     2.85228331
  Sum of centres and spreads (  5.397608,  5.397607,  5.397608 )    20.49109601

     27    -0.129E-11     0.0000016181       20.4910960070       0.26  <-- CONV
        O_D=      0.1726257 O_OD=      7.7193867 O_TOT=     20.4910960 <-- SPRD
 Delta: O_D=  0.1012954E-07 O_OD= -0.1013082E-07 O_TOT= -0.1286082E-11 <-- DLTA
 ------------------------------------------------------------------------------
 Cycle:     28
  WF centre and spread    1  (  1.349402,  1.349402,  1.349402 )     1.68869804
  WF centre and spread    2  (  1.349402,  1.349402,  1.349402 )     2.85228332
  WF centre and spread    3  (  1.349402,  1.349402,  1.349402 )     2.85228331
  WF centre and spread    4  (  1.349402,  1.349402,  1.349402 )     2.85228333
  WF centre and spread    5  (  0.000000,  0.000000,  0.000000 )     1.68869805
  WF centre and spread    6  ( -0.000000, -0.000000, -0.000000 )     2.85228332
  WF centre and spread    7  ( -0.000000, -0.000000, -0.000000 )     2.85228331
  WF centre and spread    8  (  0.000000, -0.000000,  0.000000 )     2.85228331
  Sum of centres and spreads (  5.397608,  5.397607,  5.397608 )    20.49109601

     28    -0.355E-14     0.0000012498       20.4910960070       0.27  <-- CONV
        O_D=      0.1726257 O_OD=      7.7193867 O_TOT=     20.4910960 <-- SPRD
 Delta: O_D=  0.4649526E-09 O_OD= -0.4649587E-09 O_TOT= -0.3552714E-14 <-- DLTA
 ------------------------------------------------------------------------------
 Cycle:     29
  WF centre and spread    1  (  1.349402,  1.349402,  1.349402 )     1.68869803
  WF centre and spread    2  (  1.349402,  1.349402,  1.349402 )     2.85228333
  WF centre and spread    3  (  1.349402,  1.349402,  1.349402 )     2.85228332
  WF centre and spread    4  (  1.349402,  1.349402,  1.349402 )     2.85228334
  WF centre and spread    5  (  0.000000,  0.000000,  0.000000 )     1.68869803
  WF centre and spread    6  ( -0.000000, -0.000000, -0.000000 )     2.85228333
  WF centre and spread    7  ( -0.000000, -0.000000, -0.000000 )     2.85228332
  WF centre and spread    8  (  0.000000, -0.000000,  0.000000 )     2.85228332
  Sum of centres and spreads (  5.397608,  5.397607,  5.397608 )    20.49109601

     29    -0.231E-12     0.0000012394       20.4910960070       0.28  <-- CONV
        O_D=      0.1726257 O_OD=      7.7193867 O_TOT=     20.4910960 <-- SPRD
 Delta: O_D=  0.1995362E-08 O_OD= -0.1995590E-08 O_TOT= -0.2309264E-12 <-- DLTA
 ------------------------------------------------------------------------------
 Cycle:     30
  WF centre and spread    1  (  1.349402,  1.349402,  1.349402 )     1.68869801
  WF centre and spread    2  (  1.349402,  1.349402,  1.349402 )     2.85228333
  WF centre and spread    3  (  1.349402,  1.349402,  1.349402 )     2.85228332
  WF centre and spread    4  (  1.349402,  1.349402,  1.349402 )     2.85228334
  WF centre and spread    5  (  0.000000,  0.000000,  0.000000 )     1.68869801
  WF centre and spread    6  ( -0.000000, -0.000000, -0.000000 )     2.85228333
  WF centre and spread    7  ( -0.000000, -0.000000, -0.000000 )     2.85228333
  WF centre and spread    8  (  0.000000, -0.000000,  0.000000 )     2.85228332
  Sum of centres and spreads (  5.397608,  5.397607,  5.397608 )    20.49109601

     30    -0.231E-12     0.0000011962       20.4910960070       0.28  <-- CONV
        O_D=      0.1726257 O_OD=      7.7193866 O_TOT=     20.4910960 <-- SPRD
 Delta: O_D=  0.1616014E-08 O_OD= -0.1616246E-08 O_TOT= -0.2309264E-12 <-- DLTA
 ------------------------------------------------------------------------------
 Cycle:     31
  WF centre and spread    1  (  1.349402,  1.349402,  1.349402 )     1.68869796
  WF centre and spread    2  (  1.349402,  1.349402,  1.349402 )     2.85228335
  WF centre and spread    3  (  1.349402,  1.349402,  1.349402 )     2.85228334
  WF centre and spread    4  (  1.349402,  1.349402,  1.349402 )     2.85228336
  WF centre and spread    5  (  0.000000,  0.000000,  0.000000 )     1.68869796
  WF centre and spread    6  ( -0.000000, -0.000000, -0.000000 )     2.85228335
  WF centre and spread    7  ( -0.000000, -0.000000, -0.000000 )     2.85228334
  WF centre and spread    8  (  0.000000, -0.000000,  0.000000 )     2.85228334
  Sum of centres and spreads (  5.397608,  5.397607,  5.397608 )    20.49109601

     31    -0.512E-12     0.0000011636       20.4910960070       0.28  <-- CONV
        O_D=      0.1726257 O_OD=      7.7193866 O_TOT=     20.4910960 <-- SPRD
 Delta: O_D=  0.5853982E-08 O_OD= -0.5854495E-08 O_TOT= -0.5115908E-12 <-- DLTA
 ------------------------------------------------------------------------------
 Cycle:     32
  WF centre and spread    1  (  1.349402,  1.349402,  1.349402 )     1.68869794
  WF centre and spread    2  (  1.349402,  1.349402,  1.349402 )     2.85228336
  WF centre and spread    3  (  1.349402,  1.349402,  1.349402 )     2.85228335
  WF centre and spread    4  (  1.349402,  1.349402,  1.349402 )     2.85228337
  WF centre and spread    5  (  0.000000,  0.000000,  0.000000 )     1.68869794
  WF centre and spread    6  ( -0.000000, -0.000000, -0.000000 )     2.85228336
  WF centre and spread    7  ( -0.000000, -0.000000, -0.000000 )     2.85228335
  WF centre and spread    8  (  0.000000, -0.000000,  0.000000 )     2.85228335
  Sum of centres and spreads (  5.397608,  5.397607,  5.397608 )    20.49109601

     32    -0.224E-12     0.0000010606       20.4910960070       0.29  <-- CONV
        O_D=      0.1726257 O_OD=      7.7193866 O_TOT=     20.4910960 <-- SPRD
 Delta: O_D=  0.2167159E-08 O_OD= -0.2167383E-08 O_TOT= -0.2238210E-12 <-- DLTA
 ------------------------------------------------------------------------------
 Cycle:     33
  WF centre and spread    1  (  1.349402,  1.349402,  1.349402 )     1.68869791
  WF centre and spread    2  (  1.349402,  1.349402,  1.349402 )     2.85228337
  WF centre and spread    3  (  1.349402,  1.349402,  1.349402 )     2.85228336
  WF centre and spread    4  (  1.349402,  1.349402,  1.349402 )     2.85228338
  WF centre and spread    5  (  0.000000,  0.000000,  0.000000 )     1.68869791
  WF centre and spread    6  ( -0.000000, -0.000000, -0.000000 )     2.85228337
  WF centre and spread    7  ( -0.000000, -0.000000, -0.000000 )     2.85228336
  WF centre and spread    8  (  0.000000, -0.000000,  0.000000 )     2.85228336
  Sum of centres and spreads (  5.397608,  5.397607,  5.397608 )    20.49109601

     33    -0.256E-12     0.0000010281       20.4910960070       0.29  <-- CONV
        O_D=      0.1726257 O_OD=      7.7193866 O_TOT=     20.4910960 <-- SPRD
 Delta: O_D=  0.2467430E-08 O_OD= -0.2467685E-08 O_TOT= -0.2557954E-12 <-- DLTA
 ------------------------------------------------------------------------------
 Cycle:     34
  WF centre and spread    1  (  1.349402,  1.349402,  1.349402 )     1.68869791
  WF centre and spread    2  (  1.349402,  1.349402,  1.349402 )     2.85228337
  WF centre and spread    3  (  1.349402,  1.349402,  1.349402 )     2.85228336
  WF centre and spread    4  (  1.349402,  1.349402,  1.349402 )     2.85228338
  WF centre and spread    5  (  0.000000,  0.000000,  0.000000 )     1.68869791
  WF centre and spread    6  ( -0.000000, -0.000000, -0.000000 )     2.85228337
  WF centre and spread    7  ( -0.000000, -0.000000, -0.000000 )     2.85228336
  WF centre and spread    8  (  0.000000, -0.000000,  0.000000 )     2.85228336
  Sum of centres and spreads (  5.397608,  5.397607,  5.397608 )    20.49109601

     34    -0.639E-13     0.0000009935       20.4910960070       0.29  <-- CONV
        O_D=      0.1726257 O_OD=      7.7193866 O_TOT=     20.4910960 <-- SPRD
 Delta: O_D=  0.4019629E-09 O_OD= -0.4020269E-09 O_TOT= -0.6394885E-13 <-- DLTA
 ------------------------------------------------------------------------------
 Cycle:     35
  WF centre and spread    1  (  1.349402,  1.349402,  1.349402 )     1.68869790
  WF centre and spread    2  (  1.349402,  1.349402,  1.349402 )     2.85228337
  WF centre and spread    3  (  1.349402,  1.349402,  1.349402 )     2.85228336
  WF centre and spread    4  (  1.349402,  1.349402,  1.349402 )     2.85228338
  WF centre and spread    5  (  0.000000,  0.000000,  0.000000 )     1.68869790
  WF centre and spread    6  ( -0.000000, -0.000000, -0.000000 )     2.85228337
  WF centre and spread    7  ( -0.000000, -0.000000, -0.000000 )     2.85228336
  WF centre and spread    8  (  0.000000, -0.000000,  0.000000 )     2.85228336
  Sum of centres and spreads (  5.397608,  5.397607,  5.397608 )    20.49109601

     35    -0.746E-13     0.0000009872       20.4910960070       0.30  <-- CONV
        O_D=      0.1726257 O_OD=      7.7193866 O_TOT=     20.4910960 <-- SPRD
 Delta: O_D=  0.6071513E-09 O_OD= -0.6072272E-09 O_TOT= -0.7460699E-13 <-- DLTA
 ------------------------------------------------------------------------------
 Cycle:     36
  WF centre and spread    1  (  1.349402,  1.349402,  1.349402 )     1.68869789
  WF centre and spread    2  (  1.349402,  1.349402,  1.349402 )     2.85228337
  WF centre and spread    3  (  1.349402,  1.349402,  1.349402 )     2.85228336
  WF centre and spread    4  (  1.349402,  1.349402,  1.349402 )     2.85228338
  WF centre and spread    5  (  0.000000,  0.000000,  0.000000 )     1.68869789
  WF centre and spread    6  ( -0.000000, -0.000000, -0.000000 )     2.85228338
  WF centre and spread    7  ( -0.000000, -0.000000, -0.000000 )     2.85228337
  WF centre and spread    8  (  0.000000, -0.000000,  0.000000 )     2.85228337
  Sum of centres and spreads (  5.397608,  5.397607,  5.397608 )    20.49109601

     36    -0.139E-12     0.0000009777       20.4910960070       0.30  <-- CONV
        O_D=      0.1726257 O_OD=      7.7193866 O_TOT=     20.4910960 <-- SPRD
 Delta: O_D=  0.1171501E-08 O_OD= -0.1171637E-08 O_TOT= -0.1385558E-12 <-- DLTA
 ------------------------------------------------------------------------------
 Cycle:     37
  WF centre and spread    1  (  1.349402,  1.349402,  1.349402 )     1.68869781
  WF centre and spread    2  (  1.349402,  1.349402,  1.349402 )     2.85228340
  WF centre and spread    3  (  1.349402,  1.349402,  1.349402 )     2.85228339
  WF centre and spread    4  (  1.349402,  1.349402,  1.349402 )     2.85228341
  WF centre and spread    5  (  0.000000,  0.000000,  0.000000 )     1.68869782
  WF centre and spread    6  ( -0.000000, -0.000000, -0.000000 )     2.85228340
  WF centre and spread    7  ( -0.000000, -0.000000, -0.000000 )     2.85228339
  WF centre and spread    8  (  0.000000, -0.000000,  0.000000 )     2.85228339
  Sum of centres and spreads (  5.397608,  5.397607,  5.397608 )    20.49109601

     37    -0.593E-12     0.0000009595       20.4910960070       0.31  <-- CONV
        O_D=      0.1726258 O_OD=      7.7193866 O_TOT=     20.4910960 <-- SPRD
 Delta: O_D=  0.6491102E-08 O_OD= -0.6491697E-08 O_TOT= -0.5933032E-12 <-- DLTA
 ------------------------------------------------------------------------------
 Cycle:     38
  WF centre and spread    1  (  1.349402,  1.349402,  1.349402 )     1.68869777
  WF centre and spread    2  (  1.349402,  1.349402,  1.349402 )     2.85228341
  WF centre and spread    3  (  1.349402,  1.349402,  1.349402 )     2.85228340
  WF centre and spread    4  (  1.349402,  1.349402,  1.349402 )     2.85228342
  WF centre and spread    5  (  0.000000,  0.000000,  0.000000 )     1.68869778
  WF centre and spread    6  ( -0.000000, -0.000000, -0.000000 )     2.85228341
  WF centre and spread    7  ( -0.000000, -0.000000, -0.000000 )     2.85228340
  WF centre and spread    8  (  0.000000, -0.000000,  0.000000 )     2.85228340
  Sum of centres and spreads (  5.397608,  5.397607,  5.397608 )    20.49109601

     38    -0.213E-12     0.0000008616       20.4910960070       0.31  <-- CONV
        O_D=      0.1726258 O_OD=      7.7193866 O_TOT=     20.4910960 <-- SPRD
 Delta: O_D=  0.3451179E-08 O_OD= -0.3451393E-08 O_TOT= -0.2131628E-12 <-- DLTA
 ------------------------------------------------------------------------------
 Cycle:     39
  WF centre and spread    1  (  1.349402,  1.349402,  1.349402 )     1.68869775
  WF centre and spread    2  (  1.349402,  1.349402,  1.349402 )     2.85228342
  WF centre and spread    3  (  1.349402,  1.349402,  1.349402 )     2.85228341
  WF centre and spread    4  (  1.349402,  1.349402,  1.349402 )     2.85228343
  WF centre and spread    5  (  0.000000,  0.000000,  0.000000 )     1.68869776
  WF centre and spread    6  ( -0.000000, -0.000000, -0.000000 )     2.85228342
  WF centre and spread    7  ( -0.000000, -0.000000, -0.000000 )     2.85228341
  WF centre and spread    8  (  0.000000, -0.000000,  0.000000 )     2.85228341
  Sum of centres and spreads (  5.397608,  5.397607,  5.397608 )    20.49109601

     39    -0.192E-12     0.0000008108       20.4910960070       0.32  <-- CONV
        O_D=      0.1726258 O_OD=      7.7193866 O_TOT=     20.4910960 <-- SPRD
 Delta: O_D=  0.1640008E-08 O_OD= -0.1640197E-08 O_TOT= -0.1918465E-12 <-- DLTA
 ------------------------------------------------------------------------------
 Cycle:     40
  WF centre and spread    1  (  1.349402,  1.349402,  1.349402 )     1.68869775
  WF centre and spread    2  (  1.349402,  1.349402,  1.349402 )     2.85228342
  WF centre and spread    3  (  1.349402,  1.349402,  1.349402 )     2.85228341
  WF centre and spread    4  (  1.349402,  1.349402,  1.349402 )     2.85228343
  WF centre and spread    5  (  0.000000,  0.000000,  0.000000 )     1.68869775
  WF centre and spread    6  ( -0.000000, -0.000000, -0.000000 )     2.85228342
  WF centre and spread    7  ( -0.000000, -0.000000, -0.000000 )     2.85228341
  WF centre and spread    8  (  0.000000, -0.000000,  0.000000 )     2.85228341
  Sum of centres and spreads (  5.397608,  5.397607,  5.397608 )    20.49109601

     40    -0.746E-13     0.0000007863       20.4910960070       0.32  <-- CONV
        O_D=      0.1726258 O_OD=      7.7193866 O_TOT=     20.4910960 <-- SPRD
 Delta: O_D=  0.2673593E-09 O_OD= -0.2674332E-09 O_TOT= -0.7460699E-13 <-- DLTA
 ------------------------------------------------------------------------------
 Cycle:     41
  WF centre and spread    1  (  1.349402,  1.349402,  1.349402 )     1.68869774
  WF centre and spread    2  (  1.349402,  1.349402,  1.349402 )     2.85228342
  WF centre and spread    3  (  1.349402,  1.349402,  1.349402 )     2.85228341
  WF centre and spread    4  (  1.349402,  1.349402,  1.349402 )     2.85228343
  WF centre and spread    5  (  0.000000,  0.000000,  0.000000 )     1.68869775
  WF centre and spread    6  ( -0.000000, -0.000000, -0.000000 )     2.85228342
  WF centre and spread    7  ( -0.000000, -0.000000, -0.000000 )     2.85228341
  WF centre and spread    8  (  0.000000, -0.000000,  0.000000 )     2.85228341
  Sum of centres and spreads (  5.397608,  5.397607,  5.397608 )    20.49109601

     41    -0.568E-13     0.0000007816       20.4910960070       0.33  <-- CONV
        O_D=      0.1726258 O_OD=      7.7193866 O_TOT=     20.4910960 <-- SPRD
 Delta: O_D=  0.5293808E-09 O_OD= -0.5294405E-09 O_TOT= -0.5684342E-13 <-- DLTA
 ------------------------------------------------------------------------------
 Cycle:     42
  WF centre and spread    1  (  1.349402,  1.349402,  1.349402 )     1.68869773
  WF centre and spread    2  (  1.349402,  1.349402,  1.349402 )     2.85228343
  WF centre and spread    3  (  1.349402,  1.349402,  1.349402 )     2.85228342
  WF centre and spread    4  (  1.349402,  1.349402,  1.349402 )     2.85228344
  WF centre and spread    5  (  0.000000,  0.000000,  0.000000 )     1.68869773
  WF centre and spread    6  ( -0.000000, -0.000000, -0.000000 )     2.85228343
  WF centre and spread    7  ( -0.000000, -0.000000, -0.000000 )     2.85228342
  WF centre and spread    8  (  0.000000, -0.000000,  0.000000 )     2.85228342
  Sum of centres and spreads (  5.397608,  5.397607,  5.397608 )    20.49109601

     42    -0.533E-13     0.0000007724       20.4910960070       0.33  <-- CONV
        O_D=      0.1726258 O_OD=      7.7193866 O_TOT=     20.4910960 <-- SPRD
 Delta: O_D=  0.1153778E-08 O_OD= -0.1153831E-08 O_TOT= -0.5329071E-13 <-- DLTA
 ------------------------------------------------------------------------------
 Cycle:     43
  WF centre and spread    1  (  1.349402,  1.349402,  1.349402 )     1.68869771
  WF centre and spread    2  (  1.349402,  1.349402,  1.349402 )     2.85228343
  WF centre and spread    3  (  1.349402,  1.349402,  1.349402 )     2.85228342
  WF centre and spread    4  (  1.349402,  1.349402,  1.349402 )     2.85228344
  WF centre and spread    5  (  0.000000,  0.000000,  0.000000 )     1.68869772
  WF centre and spread    6  ( -0.000000, -0.000000, -0.000000 )     2.85228343
  WF centre and spread    7  ( -0.000000, -0.000000, -0.000000 )     2.85228342
  WF centre and spread    8  (  0.000000, -0.000000,  0.000000 )     2.85228342
  Sum of centres and spreads (  5.397608,  5.397607,  5.397608 )    20.49109601

     43    -0.121E-12     0.0000007522       20.4910960070       0.33  <-- CONV
        O_D=      0.1726258 O_OD=      7.7193866 O_TOT=     20.4910960 <-- SPRD
 Delta: O_D=  0.9894880E-09 O_OD= -0.9896084E-09 O_TOT= -0.1207923E-12 <-- DLTA
 ------------------------------------------------------------------------------
 Cycle:     44
  WF centre and spread    1  (  1.349402,  1.349402,  1.349402 )     1.68869770
  WF centre and spread    2  (  1.349402,  1.349402,  1.349402 )     2.85228344
  WF centre and spread    3  (  1.349402,  1.349402,  1.349402 )     2.85228343
  WF centre and spread    4  (  1.349402,  1.349402,  1.349402 )     2.85228345
  WF centre and spread    5  (  0.000000,  0.000000,  0.000000 )     1.68869770
  WF centre and spread    6  ( -0.000000, -0.000000, -0.000000 )     2.85228344
  WF centre and spread    7  ( -0.000000, -0.000000, -0.000000 )     2.85228343
  WF centre and spread    8  (  0.000000, -0.000000,  0.000000 )     2.85228343
  Sum of centres and spreads (  5.397608,  5.397607,  5.397608 )    20.49109601

     44    -0.128E-12     0.0000007350       20.4910960070       0.34  <-- CONV
        O_D=      0.1726258 O_OD=      7.7193866 O_TOT=     20.4910960 <-- SPRD
 Delta: O_D=  0.1188542E-08 O_OD= -0.1188669E-08 O_TOT= -0.1278977E-12 <-- DLTA
 ------------------------------------------------------------------------------
 Cycle:     45
  WF centre and spread    1  (  1.349402,  1.349402,  1.349402 )     1.68869768
  WF centre and spread    2  (  1.349402,  1.349402,  1.349402 )     2.85228344
  WF centre and spread    3  (  1.349402,  1.349402,  1.349402 )     2.85228343
  WF centre and spread    4  (  1.349402,  1.349402,  1.349402 )     2.85228345
  WF centre and spread    5  (  0.000000,  0.000000,  0.000000 )     1.68869768
  WF centre and spread    6  ( -0.000000, -0.000000, -0.000000 )     2.85228345
  WF centre and spread    7  ( -0.000000, -0.000000, -0.000000 )     2.85228344
  WF centre and spread    8  (  0.000000, -0.000000,  0.000000 )     2.85228344
  Sum of centres and spreads (  5.397608,  5.397607,  5.397608 )    20.49109601

     45    -0.139E-12     0.0000007144       20.4910960070       0.34  <-- CONV
        O_D=      0.1726258 O_OD=      7.7193866 O_TOT=     20.4910960 <-- SPRD
 Delta: O_D=  0.1512285E-08 O_OD= -0.1512425E-08 O_TOT= -0.1385558E-12 <-- DLTA
 ------------------------------------------------------------------------------
 Cycle:     46
  WF centre and spread    1  (  1.349402,  1.349402,  1.349402 )     1.68869768
  WF centre and spread    2  (  1.349402,  1.349402,  1.349402 )     2.85228344
  WF centre and spread    3  (  1.349402,  1.349402,  1.349402 )     2.85228343
  WF centre and spread    4  (  1.349402,  1.349402,  1.349402 )     2.85228346
  WF centre and spread    5  (  0.000000,  0.000000,  0.000000 )     1.68869768
  WF centre and spread    6  ( -0.000000, -0.000000, -0.000000 )     2.85228345
  WF centre and spread    7  ( -0.000000, -0.000000, -0.000000 )     2.85228344
  WF centre and spread    8  (  0.000000, -0.000000,  0.000000 )     2.85228344
  Sum of centres and spreads (  5.397608,  5.397607,  5.397608 )    20.49109601

     46     0.284E-13     0.0000006882       20.4910960070       0.35  <-- CONV
        O_D=      0.1726258 O_OD=      7.7193866 O_TOT=     20.4910960 <-- SPRD
 Delta: O_D=  0.4598344E-10 O_OD= -0.4595435E-10 O_TOT=  0.2842171E-13 <-- DLTA
 ------------------------------------------------------------------------------
 Cycle:     47
  WF centre and spread    1  (  1.349402,  1.349402,  1.349402 )     1.68869767
  WF centre and spread    2  (  1.349402,  1.349402,  1.349402 )     2.85228345
  WF centre and spread    3  (  1.349402,  1.349402,  1.349402 )     2.85228344
  WF centre and spread    4  (  1.349402,  1.349402,  1.349402 )     2.85228346
  WF centre and spread    5  (  0.000000,  0.000000,  0.000000 )     1.68869767
  WF centre and spread    6  ( -0.000000, -0.000000, -0.000000 )     2.85228345
  WF centre and spread    7  ( -0.000000, -0.000000, -0.000000 )     2.85228344
  WF centre and spread    8  (  0.000000, -0.000000,  0.000000 )     2.85228344
  Sum of centres and spreads (  5.397608,  5.397607,  5.397608 )    20.49109601

     47    -0.604E-13     0.0000006874       20.4910960070       0.35  <-- CONV
        O_D=      0.1726258 O_OD=      7.7193866 O_TOT=     20.4910960 <-- SPRD
 Delta: O_D=  0.4437155E-09 O_OD= -0.4437766E-09 O_TOT= -0.6039613E-13 <-- DLTA
 ------------------------------------------------------------------------------
 Cycle:     48
  WF centre and spread    1  (  1.349402,  1.349402,  1.349402 )     1.68869766
  WF centre and spread    2  (  1.349402,  1.349402,  1.349402 )     2.85228345
  WF centre and spread    3  (  1.349402,  1.349402,  1.349402 )     2.85228344
  WF centre and spread    4  (  1.349402,  1.349402,  1.349402 )     2.85228346
  WF centre and spread    5  (  0.000000,  0.000000,  0.000000 )     1.68869766
  WF centre and spread    6  ( -0.000000, -0.000000, -0.000000 )     2.85228345
  WF centre and spread    7  ( -0.000000, -0.000000, -0.000000 )     2.85228344
  WF centre and spread    8  (  0.000000, -0.000000,  0.000000 )     2.85228344
  Sum of centres and spreads (  5.397608,  5.397607,  5.397608 )    20.49109601

     48    -0.213E-12     0.0000006794       20.4910960070       0.36  <-- CONV
        O_D=      0.1726258 O_OD=      7.7193866 O_TOT=     20.4910960 <-- SPRD
 Delta: O_D=  0.9936947E-09 O_OD= -0.9939072E-09 O_TOT= -0.2131628E-12 <-- DLTA
 ------------------------------------------------------------------------------
 Cycle:     49
  WF centre and spread    1  (  1.349402,  1.349402,  1.349402 )     1.68869765
  WF centre and spread    2  (  1.349402,  1.349402,  1.349402 )     2.85228345
  WF centre and spread    3  (  1.349402,  1.349402,  1.349402 )     2.85228344
  WF centre and spread    4  (  1.349402,  1.349402,  1.349402 )     2.85228346
  WF centre and spread    5  (  0.000000,  0.000000,  0.000000 )     1.68869766
  WF centre and spread    6  ( -0.000000, -0.000000, -0.000000 )     2.85228345
  WF centre and spread    7  ( -0.000000, -0.000000, -0.000000 )     2.85228344
  WF centre and spread    8  (  0.000000, -0.000000,  0.000000 )     2.85228344
  Sum of centres and spreads (  5.397608,  5.397607,  5.397608 )    20.49109601

     49     0.131E-12     0.0000006615       20.4910960070       0.36  <-- CONV
        O_D=      0.1726258 O_OD=      7.7193866 O_TOT=     20.4910960 <-- SPRD
 Delta: O_D=  0.1641413E-09 O_OD= -0.1640101E-09 O_TOT=  0.1314504E-12 <-- DLTA
 ------------------------------------------------------------------------------
 Cycle:     50
  WF centre and spread    1  (  1.349402,  1.349402,  1.349402 )     1.68869764
  WF centre and spread    2  (  1.349402,  1.349402,  1.349402 )     2.85228345
  WF centre and spread    3  (  1.349402,  1.349402,  1.349402 )     2.85228344
  WF centre and spread    4  (  1.349402,  1.349402,  1.349402 )     2.85228347
  WF centre and spread    5  (  0.000000,  0.000000,  0.000000 )     1.68869765
  WF centre and spread    6  ( -0.000000, -0.000000, -0.000000 )     2.85228346
  WF centre and spread    7  ( -0.000000, -0.000000, -0.000000 )     2.85228345
  WF centre and spread    8  (  0.000000, -0.000000,  0.000000 )     2.85228345
  Sum of centres and spreads (  5.397608,  5.397607,  5.397608 )    20.49109601

     50    -0.924E-13     0.0000006586       20.4910960070       0.37  <-- CONV
        O_D=      0.1726258 O_OD=      7.7193866 O_TOT=     20.4910960 <-- SPRD
 Delta: O_D=  0.6763517E-09 O_OD= -0.6764456E-09 O_TOT= -0.9237056E-13 <-- DLTA
 ------------------------------------------------------------------------------
 Cycle:     51
  WF centre and spread    1  (  1.349402,  1.349402,  1.349402 )     1.68869762
  WF centre and spread    2  (  1.349402,  1.349402,  1.349402 )     2.85228346
  WF centre and spread    3  (  1.349402,  1.349402,  1.349402 )     2.85228345
  WF centre and spread    4  (  1.349402,  1.349402,  1.349402 )     2.85228347
  WF centre and spread    5  (  0.000000,  0.000000,  0.000000 )     1.68869763
  WF centre and spread    6  ( -0.000000, -0.000000, -0.000000 )     2.85228346
  WF centre and spread    7  ( -0.000000, -0.000000, -0.000000 )     2.85228345
  WF centre and spread    8  (  0.000000, -0.000000,  0.000000 )     2.85228345
[...]
  WF centre and spread    8  (  0.000000, -0.000000,  0.000000 )     2.85228359
  Sum of centres and spreads (  5.397608,  5.397607,  5.397608 )    20.49109601

    184     0.178E-13     0.0000001077       20.4910960070       0.97  <-- CONV
        O_D=      0.1726258 O_OD=      7.7193866 O_TOT=     20.4910960 <-- SPRD
 Delta: O_D=  0.9919843E-13 O_OD= -0.7993606E-13 O_TOT=  0.1776357E-13 <-- DLTA
 ------------------------------------------------------------------------------
 Cycle:    185
  WF centre and spread    1  (  1.349402,  1.349402,  1.349402 )     1.68869720
  WF centre and spread    2  (  1.349402,  1.349402,  1.349402 )     2.85228360
  WF centre and spread    3  (  1.349402,  1.349402,  1.349402 )     2.85228359
  WF centre and spread    4  (  1.349402,  1.349402,  1.349402 )     2.85228361
  WF centre and spread    5  (  0.000000,  0.000000,  0.000000 )     1.68869720
  WF centre and spread    6  ( -0.000000, -0.000000, -0.000000 )     2.85228361
  WF centre and spread    7  ( -0.000000, -0.000000, -0.000000 )     2.85228360
  WF centre and spread    8  (  0.000000, -0.000000,  0.000000 )     2.85228359
  Sum of centres and spreads (  5.397608,  5.397607,  5.397608 )    20.49109601

    185    -0.142E-13     0.0000001077       20.4910960070       0.97  <-- CONV
        O_D=      0.1726258 O_OD=      7.7193866 O_TOT=     20.4910960 <-- SPRD
 Delta: O_D=  0.4849732E-12 O_OD= -0.5009326E-12 O_TOT= -0.1421085E-13 <-- DLTA
 ------------------------------------------------------------------------------
 Cycle:    186
  WF centre and spread    1  (  1.349402,  1.349402,  1.349402 )     1.68869720
  WF centre and spread    2  (  1.349402,  1.349402,  1.349402 )     2.85228360
  WF centre and spread    3  (  1.349402,  1.349402,  1.349402 )     2.85228359
  WF centre and spread    4  (  1.349402,  1.349402,  1.349402 )     2.85228361
  WF centre and spread    5  (  0.000000,  0.000000,  0.000000 )     1.68869720
  WF centre and spread    6  ( -0.000000, -0.000000, -0.000000 )     2.85228361
  WF centre and spread    7  ( -0.000000, -0.000000, -0.000000 )     2.85228360
  WF centre and spread    8  (  0.000000, -0.000000,  0.000000 )     2.85228359
  Sum of centres and spreads (  5.397608,  5.397607,  5.397608 )    20.49109601

    186    -0.355E-14     0.0000001077       20.4910960070       0.98  <-- CONV
        O_D=      0.1726258 O_OD=      7.7193866 O_TOT=     20.4910960 <-- SPRD
 Delta: O_D=  0.1080386E-11 O_OD= -0.1083578E-11 O_TOT= -0.3552714E-14 <-- DLTA
 ------------------------------------------------------------------------------
 Cycle:    187
  WF centre and spread    1  (  1.349402,  1.349402,  1.349402 )     1.68869720
  WF centre and spread    2  (  1.349402,  1.349402,  1.349402 )     2.85228360
  WF centre and spread    3  (  1.349402,  1.349402,  1.349402 )     2.85228359
  WF centre and spread    4  (  1.349402,  1.349402,  1.349402 )     2.85228361
  WF centre and spread    5  (  0.000000,  0.000000,  0.000000 )     1.68869720
  WF centre and spread    6  ( -0.000000, -0.000000, -0.000000 )     2.85228361
  WF centre and spread    7  ( -0.000000, -0.000000, -0.000000 )     2.85228360
  WF centre and spread    8  (  0.000000, -0.000000,  0.000000 )     2.85228359
  Sum of centres and spreads (  5.397608,  5.397607,  5.397608 )    20.49109601

    187     0.426E-13     0.0000001077       20.4910960070       0.99  <-- CONV
        O_D=      0.1726258 O_OD=      7.7193866 O_TOT=     20.4910960 <-- SPRD
 Delta: O_D=  0.1105588E-11 O_OD= -0.1063150E-11 O_TOT=  0.4263256E-13 <-- DLTA
 ------------------------------------------------------------------------------
 Cycle:    188
  WF centre and spread    1  (  1.349402,  1.349402,  1.349402 )     1.68869720
  WF centre and spread    2  (  1.349402,  1.349402,  1.349402 )     2.85228360
  WF centre and spread    3  (  1.349402,  1.349402,  1.349402 )     2.85228359
  WF centre and spread    4  (  1.349402,  1.349402,  1.349402 )     2.85228362
  WF centre and spread    5  (  0.000000,  0.000000,  0.000000 )     1.68869720
  WF centre and spread    6  ( -0.000000, -0.000000, -0.000000 )     2.85228361
  WF centre and spread    7  ( -0.000000, -0.000000, -0.000000 )     2.85228360
  WF centre and spread    8  (  0.000000, -0.000000,  0.000000 )     2.85228360
  Sum of centres and spreads (  5.397608,  5.397607,  5.397608 )    20.49109601

    188    -0.604E-13     0.0000001077       20.4910960070       0.99  <-- CONV
        O_D=      0.1726258 O_OD=      7.7193866 O_TOT=     20.4910960 <-- SPRD
 Delta: O_D=  0.1077180E-09 O_OD= -0.1077760E-09 O_TOT= -0.6039613E-13 <-- DLTA
 ------------------------------------------------------------------------------
 Cycle:    189
  WF centre and spread    1  (  1.349402,  1.349402,  1.349402 )     1.68869720
  WF centre and spread    2  (  1.349402,  1.349402,  1.349402 )     2.85228360
  WF centre and spread    3  (  1.349402,  1.349402,  1.349402 )     2.85228359
  WF centre and spread    4  (  1.349402,  1.349402,  1.349402 )     2.85228362
  WF centre and spread    5  (  0.000000,  0.000000,  0.000000 )     1.68869720
  WF centre and spread    6  ( -0.000000, -0.000000, -0.000000 )     2.85228361
  WF centre and spread    7  ( -0.000000, -0.000000, -0.000000 )     2.85228360
  WF centre and spread    8  (  0.000000, -0.000000,  0.000000 )     2.85228360
  Sum of centres and spreads (  5.397608,  5.397607,  5.397608 )    20.49109601

    189     0.888E-13     0.0000001052       20.4910960070       0.99  <-- CONV
        O_D=      0.1726258 O_OD=      7.7193866 O_TOT=     20.4910960 <-- SPRD
 Delta: O_D=  0.1382339E-11 O_OD= -0.1295852E-11 O_TOT=  0.8881784E-13 <-- DLTA
 ------------------------------------------------------------------------------
 Cycle:    190
  WF centre and spread    1  (  1.349402,  1.349402,  1.349402 )     1.68869720
  WF centre and spread    2  (  1.349402,  1.349402,  1.349402 )     2.85228360
  WF centre and spread    3  (  1.349402,  1.349402,  1.349402 )     2.85228359
  WF centre and spread    4  (  1.349402,  1.349402,  1.349402 )     2.85228362
  WF centre and spread    5  (  0.000000,  0.000000,  0.000000 )     1.68869720
  WF centre and spread    6  ( -0.000000, -0.000000, -0.000000 )     2.85228361
  WF centre and spread    7  ( -0.000000, -0.000000, -0.000000 )     2.85228360
  WF centre and spread    8  (  0.000000, -0.000000,  0.000000 )     2.85228360
  Sum of centres and spreads (  5.397608,  5.397607,  5.397608 )    20.49109601

    190    -0.320E-13     0.0000001052       20.4910960070       1.00  <-- CONV
        O_D=      0.1726258 O_OD=      7.7193866 O_TOT=     20.4910960 <-- SPRD
 Delta: O_D=  0.4396206E-12 O_OD= -0.4689582E-12 O_TOT= -0.3197442E-13 <-- DLTA
 ------------------------------------------------------------------------------
 Cycle:    191
  WF centre and spread    1  (  1.349402,  1.349402,  1.349402 )     1.68869720
  WF centre and spread    2  (  1.349402,  1.349402,  1.349402 )     2.85228360
  WF centre and spread    3  (  1.349402,  1.349402,  1.349402 )     2.85228359
  WF centre and spread    4  (  1.349402,  1.349402,  1.349402 )     2.85228362
  WF centre and spread    5  (  0.000000,  0.000000,  0.000000 )     1.68869720
  WF centre and spread    6  ( -0.000000, -0.000000, -0.000000 )     2.85228361
  WF centre and spread    7  ( -0.000000, -0.000000, -0.000000 )     2.85228360
  WF centre and spread    8  (  0.000000, -0.000000,  0.000000 )     2.85228360
  Sum of centres and spreads (  5.397608,  5.397607,  5.397608 )    20.49109601

    191     0.355E-14     0.0000001052       20.4910960070       1.00  <-- CONV
        O_D=      0.1726258 O_OD=      7.7193866 O_TOT=     20.4910960 <-- SPRD
 Delta: O_D=  0.4171752E-10 O_OD= -0.4171419E-10 O_TOT=  0.3552714E-14 <-- DLTA
 ------------------------------------------------------------------------------
 Cycle:    192
  WF centre and spread    1  (  1.349402,  1.349402,  1.349402 )     1.68869719
  WF centre and spread    2  (  1.349402,  1.349402,  1.349402 )     2.85228360
  WF centre and spread    3  (  1.349402,  1.349402,  1.349402 )     2.85228359
  WF centre and spread    4  (  1.349402,  1.349402,  1.349402 )     2.85228362
  WF centre and spread    5  (  0.000000,  0.000000,  0.000000 )     1.68869720
  WF centre and spread    6  ( -0.000000, -0.000000, -0.000000 )     2.85228361
  WF centre and spread    7  ( -0.000000, -0.000000, -0.000000 )     2.85228360
  WF centre and spread    8  (  0.000000, -0.000000,  0.000000 )     2.85228360
  Sum of centres and spreads (  5.397608,  5.397607,  5.397608 )    20.49109601

    192    -0.320E-13     0.0000001042       20.4910960070       1.01  <-- CONV
        O_D=      0.1726258 O_OD=      7.7193866 O_TOT=     20.4910960 <-- SPRD
 Delta: O_D=  0.6157372E-10 O_OD= -0.6160494E-10 O_TOT= -0.3197442E-13 <-- DLTA
 ------------------------------------------------------------------------------
 Cycle:    193
  WF centre and spread    1  (  1.349402,  1.349402,  1.349402 )     1.68869719
  WF centre and spread    2  (  1.349402,  1.349402,  1.349402 )     2.85228361
  WF centre and spread    3  (  1.349402,  1.349402,  1.349402 )     2.85228360
  WF centre and spread    4  (  1.349402,  1.349402,  1.349402 )     2.85228362
  WF centre and spread    5  (  0.000000,  0.000000,  0.000000 )     1.68869720
  WF centre and spread    6  ( -0.000000, -0.000000, -0.000000 )     2.85228361
  WF centre and spread    7  ( -0.000000, -0.000000, -0.000000 )     2.85228360
  WF centre and spread    8  (  0.000000, -0.000000,  0.000000 )     2.85228360
  Sum of centres and spreads (  5.397608,  5.397607,  5.397608 )    20.49109601

    193    -0.284E-13     0.0000001029       20.4910960070       1.01  <-- CONV
        O_D=      0.1726258 O_OD=      7.7193866 O_TOT=     20.4910960 <-- SPRD
 Delta: O_D=  0.8016990E-10 O_OD= -0.8019985E-10 O_TOT= -0.2842171E-13 <-- DLTA
 ------------------------------------------------------------------------------
 Cycle:    194
  WF centre and spread    1  (  1.349402,  1.349402,  1.349402 )     1.68869719
  WF centre and spread    2  (  1.349402,  1.349402,  1.349402 )     2.85228361
  WF centre and spread    3  (  1.349402,  1.349402,  1.349402 )     2.85228360
  WF centre and spread    4  (  1.349402,  1.349402,  1.349402 )     2.85228362
  WF centre and spread    5  (  0.000000,  0.000000,  0.000000 )     1.68869720
  WF centre and spread    6  ( -0.000000, -0.000000, -0.000000 )     2.85228361
  WF centre and spread    7  ( -0.000000, -0.000000, -0.000000 )     2.85228360
  WF centre and spread    8  (  0.000000, -0.000000,  0.000000 )     2.85228360
  Sum of centres and spreads (  5.397608,  5.397607,  5.397608 )    20.49109601

    194     0.497E-13     0.0000001011       20.4910960070       1.02  <-- CONV
        O_D=      0.1726258 O_OD=      7.7193866 O_TOT=     20.4910960 <-- SPRD
 Delta: O_D=  0.9737211E-12 O_OD= -0.9245937E-12 O_TOT=  0.4973799E-13 <-- DLTA
 ------------------------------------------------------------------------------
 Cycle:    195
  WF centre and spread    1  (  1.349402,  1.349402,  1.349402 )     1.68869719
  WF centre and spread    2  (  1.349402,  1.349402,  1.349402 )     2.85228361
  WF centre and spread    3  (  1.349402,  1.349402,  1.349402 )     2.85228360
  WF centre and spread    4  (  1.349402,  1.349402,  1.349402 )     2.85228362
  WF centre and spread    5  (  0.000000,  0.000000,  0.000000 )     1.68869719
  WF centre and spread    6  ( -0.000000, -0.000000, -0.000000 )     2.85228361
  WF centre and spread    7  ( -0.000000, -0.000000, -0.000000 )     2.85228360
  WF centre and spread    8  (  0.000000, -0.000000,  0.000000 )     2.85228360
  Sum of centres and spreads (  5.397608,  5.397607,  5.397608 )    20.49109601

    195    -0.355E-14     0.0000001011       20.4910960070       1.02  <-- CONV
        O_D=      0.1726258 O_OD=      7.7193866 O_TOT=     20.4910960 <-- SPRD
 Delta: O_D=  0.1537745E-10 O_OD= -0.1538059E-10 O_TOT= -0.3552714E-14 <-- DLTA
 ------------------------------------------------------------------------------
 Cycle:    196
  WF centre and spread    1  (  1.349402,  1.349402,  1.349402 )     1.68869719
  WF centre and spread    2  (  1.349402,  1.349402,  1.349402 )     2.85228361
  WF centre and spread    3  (  1.349402,  1.349402,  1.349402 )     2.85228360
  WF centre and spread    4  (  1.349402,  1.349402,  1.349402 )     2.85228362
  WF centre and spread    5  (  0.000000,  0.000000,  0.000000 )     1.68869719
  WF centre and spread    6  ( -0.000000, -0.000000, -0.000000 )     2.85228361
  WF centre and spread    7  ( -0.000000, -0.000000, -0.000000 )     2.85228360
  WF centre and spread    8  (  0.000000, -0.000000,  0.000000 )     2.85228360
  Sum of centres and spreads (  5.397608,  5.397607,  5.397608 )    20.49109601

    196    -0.178E-13     0.0000001007       20.4910960070       1.02  <-- CONV
        O_D=      0.1726258 O_OD=      7.7193866 O_TOT=     20.4910960 <-- SPRD
 Delta: O_D=  0.1960468E-10 O_OD= -0.1962341E-10 O_TOT= -0.1776357E-13 <-- DLTA
 ------------------------------------------------------------------------------
 Cycle:    197
  WF centre and spread    1  (  1.349402,  1.349402,  1.349402 )     1.68869719
  WF centre and spread    2  (  1.349402,  1.349402,  1.349402 )     2.85228361
  WF centre and spread    3  (  1.349402,  1.349402,  1.349402 )     2.85228360
  WF centre and spread    4  (  1.349402,  1.349402,  1.349402 )     2.85228362
  WF centre and spread    5  (  0.000000,  0.000000,  0.000000 )     1.68869719
  WF centre and spread    6  ( -0.000000, -0.000000, -0.000000 )     2.85228361
  WF centre and spread    7  ( -0.000000, -0.000000, -0.000000 )     2.85228360
  WF centre and spread    8  (  0.000000, -0.000000,  0.000000 )     2.85228360
  Sum of centres and spreads (  5.397608,  5.397607,  5.397608 )    20.49109601

    197    -0.178E-13     0.0000001003       20.4910960070       1.03  <-- CONV
        O_D=      0.1726258 O_OD=      7.7193866 O_TOT=     20.4910960 <-- SPRD
 Delta: O_D=  0.2079864E-11 O_OD= -0.2097877E-11 O_TOT= -0.1776357E-13 <-- DLTA
 ------------------------------------------------------------------------------
 Cycle:    198
  WF centre and spread    1  (  1.349402,  1.349402,  1.349402 )     1.68869719
  WF centre and spread    2  (  1.349402,  1.349402,  1.349402 )     2.85228361
  WF centre and spread    3  (  1.349402,  1.349402,  1.349402 )     2.85228360
  WF centre and spread    4  (  1.349402,  1.349402,  1.349402 )     2.85228362
  WF centre and spread    5  (  0.000000,  0.000000,  0.000000 )     1.68869719
  WF centre and spread    6  ( -0.000000, -0.000000, -0.000000 )     2.85228361
  WF centre and spread    7  ( -0.000000, -0.000000, -0.000000 )     2.85228360
  WF centre and spread    8  (  0.000000, -0.000000,  0.000000 )     2.85228360
  Sum of centres and spreads (  5.397608,  5.397607,  5.397608 )    20.49109601

    198    -0.391E-13     0.0000001003       20.4910960070       1.03  <-- CONV
        O_D=      0.1726258 O_OD=      7.7193866 O_TOT=     20.4910960 <-- SPRD
 Delta: O_D=  0.5835343E-10 O_OD= -0.5839329E-10 O_TOT= -0.3907985E-13 <-- DLTA
 ------------------------------------------------------------------------------
 Cycle:    199
  WF centre and spread    1  (  1.349402,  1.349402,  1.349402 )     1.68869719
  WF centre and spread    2  (  1.349402,  1.349402,  1.349402 )     2.85228361
  WF centre and spread    3  (  1.349402,  1.349402,  1.349402 )     2.85228360
  WF centre and spread    4  (  1.349402,  1.349402,  1.349402 )     2.85228362
  WF centre and spread    5  (  0.000000,  0.000000,  0.000000 )     1.68869719
  WF centre and spread    6  ( -0.000000, -0.000000, -0.000000 )     2.85228361
  WF centre and spread    7  ( -0.000000, -0.000000, -0.000000 )     2.85228360
  WF centre and spread    8  (  0.000000, -0.000000,  0.000000 )     2.85228360
  Sum of centres and spreads (  5.397608,  5.397607,  5.397608 )    20.49109601

    199     0.782E-13     0.0000000990       20.4910960070       1.04  <-- CONV
        O_D=      0.1726258 O_OD=      7.7193866 O_TOT=     20.4910960 <-- SPRD
 Delta: O_D=  0.5095091E-12 O_OD= -0.4298784E-12 O_TOT=  0.7815970E-13 <-- DLTA
 ------------------------------------------------------------------------------
 Cycle:    200
  WF centre and spread    1  (  1.349402,  1.349402,  1.349402 )     1.68869719
  WF centre and spread    2  (  1.349402,  1.349402,  1.349402 )     2.85228361
  WF centre and spread    3  (  1.349402,  1.349402,  1.349402 )     2.85228360
  WF centre and spread    4  (  1.349402,  1.349402,  1.349402 )     2.85228362
  WF centre and spread    5  (  0.000000,  0.000000,  0.000000 )     1.68869719
  WF centre and spread    6  ( -0.000000, -0.000000, -0.000000 )     2.85228361
  WF centre and spread    7  ( -0.000000, -0.000000, -0.000000 )     2.85228360
  WF centre and spread    8  (  0.000000, -0.000000,  0.000000 )     2.85228360
  Sum of centres and spreads (  5.397608,  5.397607,  5.397608 )    20.49109601

    200     0.533E-13     0.0000000990       20.4910960070       1.04  <-- CONV
        O_D=      0.1726258 O_OD=      7.7193866 O_TOT=     20.4910960 <-- SPRD
 Delta: O_D=  0.4928224E-11 O_OD= -0.4875211E-11 O_TOT=  0.5329071E-13 <-- DLTA
 ------------------------------------------------------------------------------

 Writing checkpoint file silicon.chk... done

 Final State
  WF centre and spread    1  (  1.349402,  1.349402,  1.349402 )     1.68869719
  WF centre and spread    2  (  1.349402,  1.349402,  1.349402 )     2.85228361
  WF centre and spread    3  (  1.349402,  1.349402,  1.349402 )     2.85228360
  WF centre and spread    4  (  1.349402,  1.349402,  1.349402 )     2.85228362
  WF centre and spread    5  (  0.000000,  0.000000,  0.000000 )     1.68869719
  WF centre and spread    6  ( -0.000000, -0.000000, -0.000000 )     2.85228361
  WF centre and spread    7  ( -0.000000, -0.000000, -0.000000 )     2.85228360
  WF centre and spread    8  (  0.000000, -0.000000,  0.000000 )     2.85228360
  Sum of centres and spreads (  5.397608,  5.397607,  5.397608 )    20.49109601

         Spreads (Ang^2)       Omega I      =    12.599083622
        ================       Omega D      =     0.172625794
                               Omega OD     =     7.719386591
    Final Spread (Ang^2)       Omega Total  =    20.491096007
 ------------------------------------------------------------------------------
 Time for wannierise            0.920 (sec)

 Writing checkpoint file silicon.chk... done

 *---------------------------------------------------------------------------*
 |                               PLOTTING                                    |
 *---------------------------------------------------------------------------*


 Calculating interpolated band-structure

 Time to calculate interpolated band structure       0.149 (sec)

 Time for plotting              0.204 (sec)
 Total Execution Time           1.414 (sec)

 *===========================================================================*
 |                             TIMING INFORMATION                            |
 *===========================================================================*
 |    Tag                                                Ncalls      Time (s)|
 |---------------------------------------------------------------------------|
 |kmesh: get                                        :         1         0.052|
 |overlap: allocate                                 :         1         0.000|
 |overlap: read                                     :         1         0.084|
 |dis: main                                         :         1         0.130|
 |wann: main                                        :         1         0.920|
 |plot: main                                        :         1         0.204|
 *---------------------------------------------------------------------------*

 All done: wannier90 exiting
