File written on 11Jul2022 at 21:37:21 

calc_only_A  :  F

begin real_lattice
   4.2608450   0.0000000   0.0000000
  -2.1304220   3.6900000   0.0000000
   0.0000000   0.0000000  30.0000000
end real_lattice

begin recip_lattice
   1.4746336   0.8513799  -0.0000000
   0.0000000   1.7027602   0.0000000
   0.0000000  -0.0000000   0.2094395
end recip_lattice

begin kpoints
   576
    0.00000000    0.00000000    0.00000000
    0.00000000    0.04166667    0.00000000
    0.00000000    0.08333333    0.00000000
    0.00000000    0.12500000    0.00000000
    0.00000000    0.16666667    0.00000000
    0.00000000    0.20833333    0.00000000
    0.00000000    0.25000000    0.00000000
    0.00000000    0.29166667    0.00000000
    0.00000000    0.33333333    0.00000000
    0.00000000    0.37500000    0.00000000
    0.00000000    0.41666667    0.00000000
    0.00000000    0.45833333    0.00000000
    0.00000000    0.50000000    0.00000000
    0.00000000    0.54166667    0.00000000
    0.00000000    0.58333333    0.00000000
    0.00000000    0.62500000    0.00000000
    0.00000000    0.66666667    0.00000000
    0.00000000    0.70833333    0.00000000
    0.00000000    0.75000000    0.00000000
    0.00000000    0.79166667    0.00000000
    0.00000000    0.83333333    0.00000000
    0.00000000    0.87500000    0.00000000
    0.00000000    0.91666667    0.00000000
    0.00000000    0.95833333    0.00000000
    0.04166667    0.00000000    0.00000000
    0.04166667    0.04166667    0.00000000
    0.04166667    0.08333333    0.00000000
    0.04166667    0.12500000    0.00000000
    0.04166667    0.16666667    0.00000000
    0.04166667    0.20833333    0.00000000
    0.04166667    0.25000000    0.00000000
    0.04166667    0.29166667    0.00000000
    0.04166667    0.33333333    0.00000000
    0.04166667    0.37500000    0.00000000
    0.04166667    0.41666667    0.00000000
    0.04166667    0.45833333    0.00000000
    0.04166667    0.50000000    0.00000000
    0.04166667    0.54166667    0.00000000
    0.04166667    0.58333333    0.00000000
    0.04166667    0.62500000    0.00000000
    0.04166667    0.66666667    0.00000000
    0.04166667    0.70833333    0.00000000
    0.04166667    0.75000000    0.00000000
    0.04166667    0.79166667    0.00000000
    0.04166667    0.83333333    0.00000000
    0.04166667    0.87500000    0.00000000
    0.04166667    0.91666667    0.00000000
    0.04166667    0.95833333    0.00000000
    0.08333333    0.00000000    0.00000000
    0.08333333    0.04166667    0.00000000
    0.08333333    0.08333333    0.00000000
    0.08333333    0.12500000    0.00000000
    0.08333333    0.16666667    0.00000000
    0.08333333    0.20833333    0.00000000
    0.08333333    0.25000000    0.00000000
    0.08333333    0.29166667    0.00000000
    0.08333333    0.33333333    0.00000000
    0.08333333    0.37500000    0.00000000
    0.08333333    0.41666667    0.00000000
    0.08333333    0.45833333    0.00000000
    0.08333333    0.50000000    0.00000000
    0.08333333    0.54166667    0.00000000
    0.08333333    0.58333333    0.00000000
    0.08333333    0.62500000    0.00000000
    0.08333333    0.66666667    0.00000000
    0.08333333    0.70833333    0.00000000
    0.08333333    0.75000000    0.00000000
    0.08333333    0.79166667    0.00000000
    0.08333333    0.83333333    0.00000000
    0.08333333    0.87500000    0.00000000
    0.08333333    0.91666667    0.00000000
    0.08333333    0.95833333    0.00000000
    0.12500000    0.00000000    0.00000000
    0.12500000    0.04166667    0.00000000
    0.12500000    0.08333333    0.00000000
    0.12500000    0.12500000    0.00000000
    0.12500000    0.16666667    0.00000000
    0.12500000    0.20833333    0.00000000
    0.12500000    0.25000000    0.00000000
    0.12500000    0.29166667    0.00000000
    0.12500000    0.33333333    0.00000000
    0.12500000    0.37500000    0.00000000
    0.12500000    0.41666667    0.00000000
    0.12500000    0.45833333    0.00000000
    0.12500000    0.50000000    0.00000000
    0.12500000    0.54166667    0.00000000
    0.12500000    0.58333333    0.00000000
    0.12500000    0.62500000    0.00000000
    0.12500000    0.66666667    0.00000000
    0.12500000    0.70833333    0.00000000
    0.12500000    0.75000000    0.00000000
    0.12500000    0.79166667    0.00000000
    0.12500000    0.83333333    0.00000000
    0.12500000    0.87500000    0.00000000
    0.12500000    0.91666667    0.00000000
    0.12500000    0.95833333    0.00000000
    0.16666667    0.00000000    0.00000000
    0.16666667    0.04166667    0.00000000
    0.16666667    0.08333333    0.00000000
    0.16666667    0.12500000    0.00000000
    0.16666667    0.16666667    0.00000000
    0.16666667    0.20833333    0.00000000
    0.16666667    0.25000000    0.00000000
    0.16666667    0.29166667    0.00000000
    0.16666667    0.33333333    0.00000000
    0.16666667    0.37500000    0.00000000
    0.16666667    0.41666667    0.00000000
    0.16666667    0.45833333    0.00000000
    0.16666667    0.50000000    0.00000000
    0.16666667    0.54166667    0.00000000
    0.16666667    0.58333333    0.00000000
    0.16666667    0.62500000    0.00000000
    0.16666667    0.66666667    0.00000000
    0.16666667    0.70833333    0.00000000
    0.16666667    0.75000000    0.00000000
    0.16666667    0.79166667    0.00000000
    0.16666667    0.83333333    0.00000000
    0.16666667    0.87500000    0.00000000
    0.16666667    0.91666667    0.00000000
    0.16666667    0.95833333    0.00000000
    0.20833333    0.00000000    0.00000000
    0.20833333    0.04166667    0.00000000
    0.20833333    0.08333333    0.00000000
    0.20833333    0.12500000    0.00000000
    0.20833333    0.16666667    0.00000000
    0.20833333    0.20833333    0.00000000
    0.20833333    0.25000000    0.00000000
    0.20833333    0.29166667    0.00000000
    0.20833333    0.33333333    0.00000000
    0.20833333    0.37500000    0.00000000
    0.20833333    0.41666667    0.00000000
    0.20833333    0.45833333    0.00000000
    0.20833333    0.50000000    0.00000000
    0.20833333    0.54166667    0.00000000
    0.20833333    0.58333333    0.00000000
    0.20833333    0.62500000    0.00000000
    0.20833333    0.66666667    0.00000000
    0.20833333    0.70833333    0.00000000
    0.20833333    0.75000000    0.00000000
    0.20833333    0.79166667    0.00000000
    0.20833333    0.83333333    0.00000000
    0.20833333    0.87500000    0.00000000
    0.20833333    0.91666667    0.00000000
    0.20833333    0.95833333    0.00000000
    0.25000000    0.00000000    0.00000000
    0.25000000    0.04166667    0.00000000
    0.25000000    0.08333333    0.00000000
    0.25000000    0.12500000    0.00000000
    0.25000000    0.16666667    0.00000000
    0.25000000    0.20833333    0.00000000
    0.25000000    0.25000000    0.00000000
    0.25000000    0.29166667    0.00000000
    0.25000000    0.33333333    0.00000000
    0.25000000    0.37500000    0.00000000
    0.25000000    0.41666667    0.00000000
    0.25000000    0.45833333    0.00000000
    0.25000000    0.50000000    0.00000000
    0.25000000    0.54166667    0.00000000
    0.25000000    0.58333333    0.00000000
    0.25000000    0.62500000    0.00000000
    0.25000000    0.66666667    0.00000000
    0.25000000    0.70833333    0.00000000
    0.25000000    0.75000000    0.00000000
    0.25000000    0.79166667    0.00000000
    0.25000000    0.83333333    0.00000000
    0.25000000    0.87500000    0.00000000
    0.25000000    0.91666667    0.00000000
    0.25000000    0.95833333    0.00000000
    0.29166667    0.00000000    0.00000000
    0.29166667    0.04166667    0.00000000
    0.29166667    0.08333333    0.00000000
    0.29166667    0.12500000    0.00000000
    0.29166667    0.16666667    0.00000000
    0.29166667    0.20833333    0.00000000
    0.29166667    0.25000000    0.00000000
    0.29166667    0.29166667    0.00000000
    0.29166667    0.33333333    0.00000000
    0.29166667    0.37500000    0.00000000
    0.29166667    0.41666667    0.00000000
    0.29166667    0.45833333    0.00000000
    0.29166667    0.50000000    0.00000000
    0.29166667    0.54166667    0.00000000
    0.29166667    0.58333333    0.00000000
    0.29166667    0.62500000    0.00000000
    0.29166667    0.66666667    0.00000000
    0.29166667    0.70833333    0.00000000
    0.29166667    0.75000000    0.00000000
    0.29166667    0.79166667    0.00000000
    0.29166667    0.83333333    0.00000000
    0.29166667    0.87500000    0.00000000
    0.29166667    0.91666667    0.00000000
    0.29166667    0.95833333    0.00000000
    0.33333333    0.00000000    0.00000000
    0.33333333    0.04166667    0.00000000
    0.33333333    0.08333333    0.00000000
    0.33333333    0.12500000    0.00000000
    0.33333333    0.16666667    0.00000000
    0.33333333    0.20833333    0.00000000
    0.33333333    0.25000000    0.00000000
    0.33333333    0.29166667    0.00000000
    0.33333333    0.33333333    0.00000000
    0.33333333    0.37500000    0.00000000
    0.33333333    0.41666667    0.00000000
    0.33333333    0.45833333    0.00000000
    0.33333333    0.50000000    0.00000000
    0.33333333    0.54166667    0.00000000
    0.33333333    0.58333333    0.00000000
    0.33333333    0.62500000    0.00000000
    0.33333333    0.66666667    0.00000000
    0.33333333    0.70833333    0.00000000
    0.33333333    0.75000000    0.00000000
    0.33333333    0.79166667    0.00000000
    0.33333333    0.83333333    0.00000000
    0.33333333    0.87500000    0.00000000
    0.33333333    0.91666667    0.00000000
    0.33333333    0.95833333    0.00000000
    0.37500000    0.00000000    0.00000000
    0.37500000    0.04166667    0.00000000
    0.37500000    0.08333333    0.00000000
    0.37500000    0.12500000    0.00000000
    0.37500000    0.16666667    0.00000000
    0.37500000    0.20833333    0.00000000
    0.37500000    0.25000000    0.00000000
    0.37500000    0.29166667    0.00000000
    0.37500000    0.33333333    0.00000000
    0.37500000    0.37500000    0.00000000
    0.37500000    0.41666667    0.00000000
    0.37500000    0.45833333    0.00000000
    0.37500000    0.50000000    0.00000000
    0.37500000    0.54166667    0.00000000
    0.37500000    0.58333333    0.00000000
    0.37500000    0.62500000    0.00000000
    0.37500000    0.66666667    0.00000000
    0.37500000    0.70833333    0.00000000
    0.37500000    0.75000000    0.00000000
    0.37500000    0.79166667    0.00000000
    0.37500000    0.83333333    0.00000000
    0.37500000    0.87500000    0.00000000
    0.37500000    0.91666667    0.00000000
    0.37500000    0.95833333    0.00000000
    0.41666667    0.00000000    0.00000000
    0.41666667    0.04166667    0.00000000
    0.41666667    0.08333333    0.00000000
    0.41666667    0.12500000    0.00000000
    0.41666667    0.16666667    0.00000000
    0.41666667    0.20833333    0.00000000
    0.41666667    0.25000000    0.00000000
    0.41666667    0.29166667    0.00000000
    0.41666667    0.33333333    0.00000000
    0.41666667    0.37500000    0.00000000
    0.41666667    0.41666667    0.00000000
    0.41666667    0.45833333    0.00000000
    0.41666667    0.50000000    0.00000000
    0.41666667    0.54166667    0.00000000
    0.41666667    0.58333333    0.00000000
    0.41666667    0.62500000    0.00000000
    0.41666667    0.66666667    0.00000000
    0.41666667    0.70833333    0.00000000
    0.41666667    0.75000000    0.00000000
    0.41666667    0.79166667    0.00000000
    0.41666667    0.83333333    0.00000000
    0.41666667    0.87500000    0.00000000
    0.41666667    0.91666667    0.00000000
    0.41666667    0.95833333    0.00000000
    0.45833333    0.00000000    0.00000000
    0.45833333    0.04166667    0.00000000
    0.45833333    0.08333333    0.00000000
    0.45833333    0.12500000    0.00000000
    0.45833333    0.16666667    0.00000000
    0.45833333    0.20833333    0.00000000
    0.45833333    0.25000000    0.00000000
    0.45833333    0.29166667    0.00000000
    0.45833333    0.33333333    0.00000000
    0.45833333    0.37500000    0.00000000
    0.45833333    0.41666667    0.00000000
    0.45833333    0.45833333    0.00000000
    0.45833333    0.50000000    0.00000000
    0.45833333    0.54166667    0.00000000
    0.45833333    0.58333333    0.00000000
    0.45833333    0.62500000    0.00000000
    0.45833333    0.66666667    0.00000000
    0.45833333    0.70833333    0.00000000
    0.45833333    0.75000000    0.00000000
    0.45833333    0.79166667    0.00000000
    0.45833333    0.83333333    0.00000000
    0.45833333    0.87500000    0.00000000
    0.45833333    0.91666667    0.00000000
    0.45833333    0.95833333    0.00000000
    0.50000000    0.00000000    0.00000000
    0.50000000    0.04166667    0.00000000
    0.50000000    0.08333333    0.00000000
    0.50000000    0.12500000    0.00000000
    0.50000000    0.16666667    0.00000000
    0.50000000    0.20833333    0.00000000
    0.50000000    0.25000000    0.00000000
    0.50000000    0.29166667    0.00000000
    0.50000000    0.33333333    0.00000000
    0.50000000    0.37500000    0.00000000
    0.50000000    0.41666667    0.00000000
    0.50000000    0.45833333    0.00000000
    0.50000000    0.50000000    0.00000000
    0.50000000    0.54166667    0.00000000
    0.50000000    0.58333333    0.00000000
    0.50000000    0.62500000    0.00000000
    0.50000000    0.66666667    0.00000000
    0.50000000    0.70833333    0.00000000
    0.50000000    0.75000000    0.00000000
    0.50000000    0.79166667    0.00000000
    0.50000000    0.83333333    0.00000000
    0.50000000    0.87500000    0.00000000
    0.50000000    0.91666667    0.00000000
    0.50000000    0.95833333    0.00000000
    0.54166667    0.00000000    0.00000000
    0.54166667    0.04166667    0.00000000
    0.54166667    0.08333333    0.00000000
    0.54166667    0.12500000    0.00000000
    0.54166667    0.16666667    0.00000000
    0.54166667    0.20833333    0.00000000
    0.54166667    0.25000000    0.00000000
    0.54166667    0.29166667    0.00000000
    0.54166667    0.33333333    0.00000000
    0.54166667    0.37500000    0.00000000
    0.54166667    0.41666667    0.00000000
    0.54166667    0.45833333    0.00000000
    0.54166667    0.50000000    0.00000000
    0.54166667    0.54166667    0.00000000
    0.54166667    0.58333333    0.00000000
    0.54166667    0.62500000    0.00000000
    0.54166667    0.66666667    0.00000000
    0.54166667    0.70833333    0.00000000
    0.54166667    0.75000000    0.00000000
    0.54166667    0.79166667    0.00000000
    0.54166667    0.83333333    0.00000000
    0.54166667    0.87500000    0.00000000
    0.54166667    0.91666667    0.00000000
    0.54166667    0.95833333    0.00000000
    0.58333333    0.00000000    0.00000000
    0.58333333    0.04166667    0.00000000
    0.58333333    0.08333333    0.00000000
    0.58333333    0.12500000    0.00000000
    0.58333333    0.16666667    0.00000000
    0.58333333    0.20833333    0.00000000
    0.58333333    0.25000000    0.00000000
    0.58333333    0.29166667    0.00000000
    0.58333333    0.33333333    0.00000000
    0.58333333    0.37500000    0.00000000
    0.58333333    0.41666667    0.00000000
    0.58333333    0.45833333    0.00000000
    0.58333333    0.50000000    0.00000000
    0.58333333    0.54166667    0.00000000
    0.58333333    0.58333333    0.00000000
    0.58333333    0.62500000    0.00000000
    0.58333333    0.66666667    0.00000000
    0.58333333    0.70833333    0.00000000
    0.58333333    0.75000000    0.00000000
    0.58333333    0.79166667    0.00000000
    0.58333333    0.83333333    0.00000000
    0.58333333    0.87500000    0.00000000
    0.58333333    0.91666667    0.00000000
    0.58333333    0.95833333    0.00000000
    0.62500000    0.00000000    0.00000000
    0.62500000    0.04166667    0.00000000
    0.62500000    0.08333333    0.00000000
    0.62500000    0.12500000    0.00000000
    0.62500000    0.16666667    0.00000000
    0.62500000    0.20833333    0.00000000
    0.62500000    0.25000000    0.00000000
    0.62500000    0.29166667    0.00000000
    0.62500000    0.33333333    0.00000000
    0.62500000    0.37500000    0.00000000
    0.62500000    0.41666667    0.00000000
    0.62500000    0.45833333    0.00000000
    0.62500000    0.50000000    0.00000000
    0.62500000    0.54166667    0.00000000
    0.62500000    0.58333333    0.00000000
    0.62500000    0.62500000    0.00000000
    0.62500000    0.66666667    0.00000000
    0.62500000    0.70833333    0.00000000
    0.62500000    0.75000000    0.00000000
    0.62500000    0.79166667    0.00000000
    0.62500000    0.83333333    0.00000000
    0.62500000    0.87500000    0.00000000
    0.62500000    0.91666667    0.00000000
    0.62500000    0.95833333    0.00000000
    0.66666667    0.00000000    0.00000000
    0.66666667    0.04166667    0.00000000
    0.66666667    0.08333333    0.00000000
    0.66666667    0.12500000    0.00000000
    0.66666667    0.16666667    0.00000000
    0.66666667    0.20833333    0.00000000
    0.66666667    0.25000000    0.00000000
    0.66666667    0.29166667    0.00000000
    0.66666667    0.33333333    0.00000000
    0.66666667    0.37500000    0.00000000
    0.66666667    0.41666667    0.00000000
    0.66666667    0.45833333    0.00000000
    0.66666667    0.50000000    0.00000000
    0.66666667    0.54166667    0.00000000
    0.66666667    0.58333333    0.00000000
    0.66666667    0.62500000    0.00000000
    0.66666667    0.66666667    0.00000000
    0.66666667    0.70833333    0.00000000
    0.66666667    0.75000000    0.00000000
    0.66666667    0.79166667    0.00000000
    0.66666667    0.83333333    0.00000000
    0.66666667    0.87500000    0.00000000
    0.66666667    0.91666667    0.00000000
    0.66666667    0.95833333    0.00000000
    0.70833333    0.00000000    0.00000000
    0.70833333    0.04166667    0.00000000
    0.70833333    0.08333333    0.00000000
    0.70833333    0.12500000    0.00000000
    0.70833333    0.16666667    0.00000000
    0.70833333    0.20833333    0.00000000
    0.70833333    0.25000000    0.00000000
    0.70833333    0.29166667    0.00000000
    0.70833333    0.33333333    0.00000000
    0.70833333    0.37500000    0.00000000
    0.70833333    0.41666667    0.00000000
    0.70833333    0.45833333    0.00000000
    0.70833333    0.50000000    0.00000000
    0.70833333    0.54166667    0.00000000
    0.70833333    0.58333333    0.00000000
    0.70833333    0.62500000    0.00000000
    0.70833333    0.66666667    0.00000000
    0.70833333    0.70833333    0.00000000
    0.70833333    0.75000000    0.00000000
    0.70833333    0.79166667    0.00000000
    0.70833333    0.83333333    0.00000000
    0.70833333    0.87500000    0.00000000
    0.70833333    0.91666667    0.00000000
    0.70833333    0.95833333    0.00000000
    0.75000000    0.00000000    0.00000000
    0.75000000    0.04166667    0.00000000
    0.75000000    0.08333333    0.00000000
    0.75000000    0.12500000    0.00000000
    0.75000000    0.16666667    0.00000000
    0.75000000    0.20833333    0.00000000
    0.75000000    0.25000000    0.00000000
    0.75000000    0.29166667    0.00000000
    0.75000000    0.33333333    0.00000000
    0.75000000    0.37500000    0.00000000
    0.75000000    0.41666667    0.00000000
    0.75000000    0.45833333    0.00000000
    0.75000000    0.50000000    0.00000000
    0.75000000    0.54166667    0.00000000
    0.75000000    0.58333333    0.00000000
    0.75000000    0.62500000    0.00000000
    0.75000000    0.66666667    0.00000000
    0.75000000    0.70833333    0.00000000
    0.75000000    0.75000000    0.00000000
    0.75000000    0.79166667    0.00000000
    0.75000000    0.83333333    0.00000000
    0.75000000    0.87500000    0.00000000
    0.75000000    0.91666667    0.00000000
    0.75000000    0.95833333    0.00000000
    0.79166667    0.00000000    0.00000000
    0.79166667    0.04166667    0.00000000
    0.79166667    0.08333333    0.00000000
    0.79166667    0.12500000    0.00000000
    0.79166667    0.16666667    0.00000000
    0.79166667    0.20833333    0.00000000
    0.79166667    0.25000000    0.00000000
    0.79166667    0.29166667    0.00000000
    0.79166667    0.33333333    0.00000000
    0.79166667    0.37500000    0.00000000
    0.79166667    0.41666667    0.00000000
    0.79166667    0.45833333    0.00000000
    0.79166667    0.50000000    0.00000000
    0.79166667    0.54166667    0.00000000
    0.79166667    0.58333333    0.00000000
    0.79166667    0.62500000    0.00000000
    0.79166667    0.66666667    0.00000000
    0.79166667    0.70833333    0.00000000
    0.79166667    0.75000000    0.00000000
    0.79166667    0.79166667    0.00000000
    0.79166667    0.83333333    0.00000000
    0.79166667    0.87500000    0.00000000
    0.79166667    0.91666667    0.00000000
    0.79166667    0.95833333    0.00000000
    0.83333333    0.00000000    0.00000000
    0.83333333    0.04166667    0.00000000
    0.83333333    0.08333333    0.00000000
    0.83333333    0.12500000    0.00000000
    0.83333333    0.16666667    0.00000000
    0.83333333    0.20833333    0.00000000
    0.83333333    0.25000000    0.00000000
    0.83333333    0.29166667    0.00000000
    0.83333333    0.33333333    0.00000000
    0.83333333    0.37500000    0.00000000
    0.83333333    0.41666667    0.00000000
    0.83333333    0.45833333    0.00000000
    0.83333333    0.50000000    0.00000000
    0.83333333    0.54166667    0.00000000
    0.83333333    0.58333333    0.00000000
    0.83333333    0.62500000    0.00000000
    0.83333333    0.66666667    0.00000000
    0.83333333    0.70833333    0.00000000
    0.83333333    0.75000000    0.00000000
    0.83333333    0.79166667    0.00000000
    0.83333333    0.83333333    0.00000000
    0.83333333    0.87500000    0.00000000
    0.83333333    0.91666667    0.00000000
    0.83333333    0.95833333    0.00000000
    0.87500000    0.00000000    0.00000000
    0.87500000    0.04166667    0.00000000
    0.87500000    0.08333333    0.00000000
    0.87500000    0.12500000    0.00000000
    0.87500000    0.16666667    0.00000000
    0.87500000    0.20833333    0.00000000
    0.87500000    0.25000000    0.00000000
    0.87500000    0.29166667    0.00000000
    0.87500000    0.33333333    0.00000000
    0.87500000    0.37500000    0.00000000
    0.87500000    0.41666667    0.00000000
    0.87500000    0.45833333    0.00000000
    0.87500000    0.50000000    0.00000000
    0.87500000    0.54166667    0.00000000
    0.87500000    0.58333333    0.00000000
    0.87500000    0.62500000    0.00000000
    0.87500000    0.66666667    0.00000000
    0.87500000    0.70833333    0.00000000
    0.87500000    0.75000000    0.00000000
    0.87500000    0.79166667    0.00000000
    0.87500000    0.83333333    0.00000000
    0.87500000    0.87500000    0.00000000
    0.87500000    0.91666667    0.00000000
    0.87500000    0.95833333    0.00000000
    0.91666667    0.00000000    0.00000000
    0.91666667    0.04166667    0.00000000
    0.91666667    0.08333333    0.00000000
    0.91666667    0.12500000    0.00000000
    0.91666667    0.16666667    0.00000000
    0.91666667    0.20833333    0.00000000
    0.91666667    0.25000000    0.00000000
    0.91666667    0.29166667    0.00000000
    0.91666667    0.33333333    0.00000000
    0.91666667    0.37500000    0.00000000
    0.91666667    0.41666667    0.00000000
    0.91666667    0.45833333    0.00000000
    0.91666667    0.50000000    0.00000000
    0.91666667    0.54166667    0.00000000
    0.91666667    0.58333333    0.00000000
    0.91666667    0.62500000    0.00000000
    0.91666667    0.66666667    0.00000000
    0.91666667    0.70833333    0.00000000
    0.91666667    0.75000000    0.00000000
    0.91666667    0.79166667    0.00000000
    0.91666667    0.83333333    0.00000000
    0.91666667    0.87500000    0.00000000
    0.91666667    0.91666667    0.00000000
    0.91666667    0.95833333    0.00000000
    0.95833333    0.00000000    0.00000000
    0.95833333    0.04166667    0.00000000
    0.95833333    0.08333333    0.00000000
    0.95833333    0.12500000    0.00000000
    0.95833333    0.16666667    0.00000000
    0.95833333    0.20833333    0.00000000
    0.95833333    0.25000000    0.00000000
    0.95833333    0.29166667    0.00000000
    0.95833333    0.33333333    0.00000000
    0.95833333    0.37500000    0.00000000
    0.95833333    0.41666667    0.00000000
    0.95833333    0.45833333    0.00000000
    0.95833333    0.50000000    0.00000000
    0.95833333    0.54166667    0.00000000
    0.95833333    0.58333333    0.00000000
    0.95833333    0.62500000    0.00000000
    0.95833333    0.66666667    0.00000000
    0.95833333    0.70833333    0.00000000
    0.95833333    0.75000000    0.00000000
    0.95833333    0.79166667    0.00000000
    0.95833333    0.83333333    0.00000000
    0.95833333    0.87500000    0.00000000
    0.95833333    0.91666667    0.00000000
    0.95833333    0.95833333    0.00000000
end kpoints

begin projections
    24
   0.00000    0.00000    0.00000     1  1  1
    0.0000000  0.0000000  1.0000000   1.0000000  0.0000000  0.0000000    1.00
   0.66667    0.66667    0.00000     1  1  1
    0.0000000  0.0000000  1.0000000   1.0000000  0.0000000  0.0000000    1.00
   0.66667    0.33333    0.00000     1  1  1
    0.0000000  0.0000000  1.0000000   1.0000000  0.0000000  0.0000000    1.00
   0.33333    0.66667    0.00000     1  1  1
    0.0000000  0.0000000  1.0000000   1.0000000  0.0000000  0.0000000    1.00
   0.33333   -0.00000    0.00000     1  1  1
    0.0000000  0.0000000  1.0000000   1.0000000  0.0000000  0.0000000    1.00
   0.00000    0.33333    0.00000     1  1  1
    0.0000000  0.0000000  1.0000000   1.0000000  0.0000000  0.0000000    1.00
   0.00000    0.00000    0.00000    -2  1  1
    0.0000000  0.0000000  1.0000000   1.0000000  0.0000000  0.0000000    1.00
   0.00000    0.00000    0.00000    -2  2  1
    0.0000000  0.0000000  1.0000000   1.0000000  0.0000000  0.0000000    1.00
   0.00000    0.00000    0.00000    -2  3  1
    0.0000000  0.0000000  1.0000000   1.0000000  0.0000000  0.0000000    1.00
   0.66667    0.66667    0.00000    -2  1  1
    0.0000000  0.0000000  1.0000000   1.0000000  0.0000000  0.0000000    1.00
   0.66667    0.66667    0.00000    -2  2  1
    0.0000000  0.0000000  1.0000000   1.0000000  0.0000000  0.0000000    1.00
   0.66667    0.66667    0.00000    -2  3  1
    0.0000000  0.0000000  1.0000000   1.0000000  0.0000000  0.0000000    1.00
   0.66667    0.33333    0.00000    -2  1  1
    0.0000000  0.0000000  1.0000000   1.0000000  0.0000000  0.0000000    1.00
   0.66667    0.33333    0.00000    -2  2  1
    0.0000000  0.0000000  1.0000000   1.0000000  0.0000000  0.0000000    1.00
   0.66667    0.33333    0.00000    -2  3  1
    0.0000000  0.0000000  1.0000000   1.0000000  0.0000000  0.0000000    1.00
   0.33333    0.66667    0.00000    -2  1  1
    0.0000000  0.0000000  1.0000000   1.0000000  0.0000000  0.0000000    1.00
   0.33333    0.66667    0.00000    -2  2  1
    0.0000000  0.0000000  1.0000000   1.0000000  0.0000000  0.0000000    1.00
   0.33333    0.66667    0.00000    -2  3  1
    0.0000000  0.0000000  1.0000000   1.0000000  0.0000000  0.0000000    1.00
   0.33333   -0.00000    0.00000    -2  1  1
    0.0000000  0.0000000  1.0000000   1.0000000  0.0000000  0.0000000    1.00
   0.33333   -0.00000    0.00000    -2  2  1
    0.0000000  0.0000000  1.0000000   1.0000000  0.0000000  0.0000000    1.00
   0.33333   -0.00000    0.00000    -2  3  1
    0.0000000  0.0000000  1.0000000   1.0000000  0.0000000  0.0000000    1.00
   0.00000    0.33333    0.00000    -2  1  1
    0.0000000  0.0000000  1.0000000   1.0000000  0.0000000  0.0000000    1.00
   0.00000    0.33333    0.00000    -2  2  1
    0.0000000  0.0000000  1.0000000   1.0000000  0.0000000  0.0000000    1.00
   0.00000    0.33333    0.00000    -2  3  1
    0.0000000  0.0000000  1.0000000   1.0000000  0.0000000  0.0000000    1.00
end projections

begin nnkpts
   8
     1     2      0   0   0
     1    25      0   0   0
     1   553     -1   0   0
     1   554     -1   0   0
     1    24      0  -1   0
     1    48      0  -1   0
     1     1      0   0   1
     1     1      0   0  -1
     2     1      0   0   0
     2     3      0   0   0
     2    25      0   0   0
     2    26      0   0   0
     2   554     -1   0   0
     2   555     -1   0   0
     2     2      0   0   1
     2     2      0   0  -1
     3     2      0   0   0
     3     4      0   0   0
     3    26      0   0   0
     3    27      0   0   0
     3   555     -1   0   0
     3   556     -1   0   0
     3     3      0   0   1
     3     3      0   0  -1
     4     3      0   0   0
     4     5      0   0   0
     4    27      0   0   0
     4    28      0   0   0
     4   556     -1   0   0
     4   557     -1   0   0
     4     4      0   0   1
     4     4      0   0  -1
     5     4      0   0   0
     5     6      0   0   0
     5    28      0   0   0
     5    29      0   0   0
     5   557     -1   0   0
     5   558     -1   0   0
     5     5      0   0   1
     5     5      0   0  -1
     6     5      0   0   0
     6     7      0   0   0
     6    29      0   0   0
     6    30      0   0   0
     6   558     -1   0   0
     6   559     -1   0   0
     6     6      0   0   1
     6     6      0   0  -1
     7     6      0   0   0
     7     8      0   0   0
     7    30      0   0   0
     7    31      0   0   0
     7   559     -1   0   0
     7   560     -1   0   0
     7     7      0   0   1
     7     7      0   0  -1
     8     7      0   0   0
     8     9      0   0   0
     8    31      0   0   0
     8    32      0   0   0
     8   560     -1   0   0
     8   561     -1   0   0
     8     8      0   0   1
     8     8      0   0  -1
     9     8      0   0   0
     9    10      0   0   0
     9    32      0   0   0
     9    33      0   0   0
     9   561     -1   0   0
     9   562     -1   0   0
     9     9      0   0   1
     9     9      0   0  -1
    10     9      0   0   0
    10    11      0   0   0
    10    33      0   0   0
    10    34      0   0   0
    10   562     -1   0   0
    10   563     -1   0   0
    10    10      0   0   1
    10    10      0   0  -1
    11    10      0   0   0
    11    12      0   0   0
    11    34      0   0   0
    11    35      0   0   0
    11   563     -1   0   0
    11   564     -1   0   0
    11    11      0   0   1
    11    11      0   0  -1
    12    11      0   0   0
    12    13      0   0   0
    12    35      0   0   0
    12    36      0   0   0
    12   564     -1   0   0
    12   565     -1   0   0
    12    12      0   0   1
    12    12      0   0  -1
    13    12      0   0   0
    13    14      0   0   0
    13    36      0   0   0
    13    37      0   0   0
    13   565     -1   0   0
    13   566     -1   0   0
    13    13      0   0   1
    13    13      0   0  -1
    14    13      0   0   0
    14    15      0   0   0
    14    37      0   0   0
    14    38      0   0   0
    14   566     -1   0   0
    14   567     -1   0   0
    14    14      0   0   1
    14    14      0   0  -1
    15    14      0   0   0
    15    16      0   0   0
    15    38      0   0   0
    15    39      0   0   0
    15   567     -1   0   0
    15   568     -1   0   0
    15    15      0   0   1
    15    15      0   0  -1
    16    15      0   0   0
    16    17      0   0   0
    16    39      0   0   0
    16    40      0   0   0
    16   568     -1   0   0
    16   569     -1   0   0
    16    16      0   0   1
    16    16      0   0  -1
    17    16      0   0   0
    17    18      0   0   0
    17    40      0   0   0
    17    41      0   0   0
    17   569     -1   0   0
    17   570     -1   0   0
    17    17      0   0   1
    17    17      0   0  -1
    18    17      0   0   0
    18    19      0   0   0
    18    41      0   0   0
    18    42      0   0   0
    18   570     -1   0   0
    18   571     -1   0   0
    18    18      0   0   1
    18    18      0   0  -1
    19    18      0   0   0
    19    20      0   0   0
    19    42      0   0   0
    19    43      0   0   0
    19   571     -1   0   0
    19   572     -1   0   0
    19    19      0   0   1
    19    19      0   0  -1
    20    19      0   0   0
    20    21      0   0   0
    20    43      0   0   0
    20    44      0   0   0
    20   572     -1   0   0
    20   573     -1   0   0
    20    20      0   0   1
    20    20      0   0  -1
    21    20      0   0   0
    21    22      0   0   0
    21    44      0   0   0
    21    45      0   0   0
    21   573     -1   0   0
    21   574     -1   0   0
    21    21      0   0   1
    21    21      0   0  -1
    22    21      0   0   0
    22    23      0   0   0
    22    45      0   0   0
    22    46      0   0   0
    22   574     -1   0   0
    22   575     -1   0   0
    22    22      0   0   1
    22    22      0   0  -1
    23    22      0   0   0
    23    24      0   0   0
    23    46      0   0   0
    23    47      0   0   0
    23   575     -1   0   0
    23   576     -1   0   0
    23    23      0   0   1
    23    23      0   0  -1
    24    23      0   0   0
    24    47      0   0   0
    24    48      0   0   0
    24   576     -1   0   0
    24     1      0   1   0
    24   553     -1   1   0
    24    24      0   0   1
    24    24      0   0  -1
    25     1      0   0   0
    25     2      0   0   0
    25    26      0   0   0
    25    49      0   0   0
    25    48      0  -1   0
    25    72      0  -1   0
    25    25      0   0   1
    25    25      0   0  -1
    26     2      0   0   0
    26     3      0   0   0
    26    25      0   0   0
    26    27      0   0   0
    26    49      0   0   0
    26    50      0   0   0
    26    26      0   0   1
    26    26      0   0  -1
    27     3      0   0   0
    27     4      0   0   0
    27    26      0   0   0
    27    28      0   0   0
    27    50      0   0   0
    27    51      0   0   0
    27    27      0   0   1
    27    27      0   0  -1
    28     4      0   0   0
    28     5      0   0   0
    28    27      0   0   0
    28    29      0   0   0
    28    51      0   0   0
    28    52      0   0   0
    28    28      0   0   1
    28    28      0   0  -1
    29     5      0   0   0
    29     6      0   0   0
    29    28      0   0   0
    29    30      0   0   0
    29    52      0   0   0
    29    53      0   0   0
    29    29      0   0   1
    29    29      0   0  -1
    30     6      0   0   0
    30     7      0   0   0
    30    29      0   0   0
    30    31      0   0   0
    30    53      0   0   0
    30    54      0   0   0
    30    30      0   0   1
    30    30      0   0  -1
    31     7      0   0   0
    31     8      0   0   0
    31    30      0   0   0
    31    32      0   0   0
    31    54      0   0   0
    31    55      0   0   0
    31    31      0   0   1
    31    31      0   0  -1
    32     8      0   0   0
    32     9      0   0   0
    32    31      0   0   0
    32    33      0   0   0
    32    55      0   0   0
    32    56      0   0   0
    32    32      0   0   1
    32    32      0   0  -1
    33     9      0   0   0
    33    10      0   0   0
    33    32      0   0   0
    33    34      0   0   0
    33    56      0   0   0
    33    57      0   0   0
    33    33      0   0   1
    33    33      0   0  -1
    34    10      0   0   0
    34    11      0   0   0
    34    33      0   0   0
    34    35      0   0   0
    34    57      0   0   0
    34    58      0   0   0
    34    34      0   0   1
    34    34      0   0  -1
    35    11      0   0   0
    35    12      0   0   0
    35    34      0   0   0
    35    36      0   0   0
    35    58      0   0   0
    35    59      0   0   0
    35    35      0   0   1
    35    35      0   0  -1
    36    12      0   0   0
    36    13      0   0   0
    36    35      0   0   0
    36    37      0   0   0
    36    59      0   0   0
    36    60      0   0   0
    36    36      0   0   1
    36    36      0   0  -1
    37    13      0   0   0
    37    14      0   0   0
    37    36      0   0   0
    37    38      0   0   0
    37    60      0   0   0
    37    61      0   0   0
    37    37      0   0   1
    37    37      0   0  -1
    38    14      0   0   0
    38    15      0   0   0
    38    37      0   0   0
    38    39      0   0   0
    38    61      0   0   0
    38    62      0   0   0
    38    38      0   0   1
    38    38      0   0  -1
    39    15      0   0   0
    39    16      0   0   0
    39    38      0   0   0
    39    40      0   0   0
    39    62      0   0   0
    39    63      0   0   0
    39    39      0   0   1
    39    39      0   0  -1
    40    16      0   0   0
    40    17      0   0   0
    40    39      0   0   0
    40    41      0   0   0
    40    63      0   0   0
    40    64      0   0   0
    40    40      0   0   1
    40    40      0   0  -1
    41    17      0   0   0
    41    18      0   0   0
    41    40      0   0   0
    41    42      0   0   0
    41    64      0   0   0
    41    65      0   0   0
    41    41      0   0   1
    41    41      0   0  -1
    42    18      0   0   0
    42    19      0   0   0
    42    41      0   0   0
    42    43      0   0   0
    42    65      0   0   0
    42    66      0   0   0
    42    42      0   0   1
    42    42      0   0  -1
    43    19      0   0   0
    43    20      0   0   0
    43    42      0   0   0
    43    44      0   0   0
    43    66      0   0   0
    43    67      0   0   0
    43    43      0   0   1
    43    43      0   0  -1
    44    20      0   0   0
    44    21      0   0   0
    44    43      0   0   0
    44    45      0   0   0
    44    67      0   0   0
    44    68      0   0   0
    44    44      0   0   1
    44    44      0   0  -1
    45    21      0   0   0
    45    22      0   0   0
    45    44      0   0   0
    45    46      0   0   0
    45    68      0   0   0
    45    69      0   0   0
    45    45      0   0   1
    45    45      0   0  -1
    46    22      0   0   0
    46    23      0   0   0
    46    45      0   0   0
    46    47      0   0   0
    46    69      0   0   0
    46    70      0   0   0
    46    46      0   0   1
    46    46      0   0  -1
    47    23      0   0   0
    47    24      0   0   0
    47    46      0   0   0
    47    48      0   0   0
    47    70      0   0   0
    47    71      0   0   0
    47    47      0   0   1
    47    47      0   0  -1
    48    24      0   0   0
    48    47      0   0   0
    48    71      0   0   0
    48    72      0   0   0
    48     1      0   1   0
    48    25      0   1   0
    48    48      0   0   1
    48    48      0   0  -1
    49    25      0   0   0
    49    26      0   0   0
    49    50      0   0   0
    49    73      0   0   0
    49    72      0  -1   0
    49    96      0  -1   0
    49    49      0   0   1
    49    49      0   0  -1
    50    26      0   0   0
    50    27      0   0   0
    50    49      0   0   0
    50    51      0   0   0
    50    73      0   0   0
    50    74      0   0   0
    50    50      0   0   1
    50    50      0   0  -1
    51    27      0   0   0
    51    28      0   0   0
    51    50      0   0   0
    51    52      0   0   0
    51    74      0   0   0
    51    75      0   0   0
    51    51      0   0   1
    51    51      0   0  -1
    52    28      0   0   0
    52    29      0   0   0
    52    51      0   0   0
    52    53      0   0   0
    52    75      0   0   0
    52    76      0   0   0
    52    52      0   0   1
    52    52      0   0  -1
    53    29      0   0   0
    53    30      0   0   0
    53    52      0   0   0
    53    54      0   0   0
    53    76      0   0   0
    53    77      0   0   0
    53    53      0   0   1
    53    53      0   0  -1
    54    30      0   0   0
    54    31      0   0   0
    54    53      0   0   0
    54    55      0   0   0
    54    77      0   0   0
    54    78      0   0   0
    54    54      0   0   1
    54    54      0   0  -1
    55    31      0   0   0
    55    32      0   0   0
    55    54      0   0   0
    55    56      0   0   0
    55    78      0   0   0
    55    79      0   0   0
    55    55      0   0   1
    55    55      0   0  -1
    56    32      0   0   0
    56    33      0   0   0
    56    55      0   0   0
    56    57      0   0   0
    56    79      0   0   0
    56    80      0   0   0
    56    56      0   0   1
    56    56      0   0  -1
    57    33      0   0   0
    57    34      0   0   0
    57    56      0   0   0
    57    58      0   0   0
    57    80      0   0   0
    57    81      0   0   0
    57    57      0   0   1
    57    57      0   0  -1
    58    34      0   0   0
    58    35      0   0   0
    58    57      0   0   0
    58    59      0   0   0
    58    81      0   0   0
    58    82      0   0   0
    58    58      0   0   1
    58    58      0   0  -1
    59    35      0   0   0
    59    36      0   0   0
    59    58      0   0   0
    59    60      0   0   0
    59    82      0   0   0
    59    83      0   0   0
    59    59      0   0   1
    59    59      0   0  -1
    60    36      0   0   0
    60    37      0   0   0
    60    59      0   0   0
    60    61      0   0   0
    60    83      0   0   0
    60    84      0   0   0
    60    60      0   0   1
    60    60      0   0  -1
    61    37      0   0   0
    61    38      0   0   0
    61    60      0   0   0
    61    62      0   0   0
    61    84      0   0   0
    61    85      0   0   0
    61    61      0   0   1
    61    61      0   0  -1
    62    38      0   0   0
    62    39      0   0   0
    62    61      0   0   0
    62    63      0   0   0
    62    85      0   0   0
    62    86      0   0   0
    62    62      0   0   1
    62    62      0   0  -1
    63    39      0   0   0
    63    40      0   0   0
    63    62      0   0   0
    63    64      0   0   0
    63    86      0   0   0
    63    87      0   0   0
    63    63      0   0   1
    63    63      0   0  -1
    64    40      0   0   0
    64    41      0   0   0
    64    63      0   0   0
    64    65      0   0   0
    64    87      0   0   0
    64    88      0   0   0
    64    64      0   0   1
    64    64      0   0  -1
    65    41      0   0   0
    65    42      0   0   0
    65    64      0   0   0
    65    66      0   0   0
    65    88      0   0   0
    65    89      0   0   0
    65    65      0   0   1
    65    65      0   0  -1
    66    42      0   0   0
    66    43      0   0   0
    66    65      0   0   0
    66    67      0   0   0
    66    89      0   0   0
    66    90      0   0   0
    66    66      0   0   1
    66    66      0   0  -1
    67    43      0   0   0
    67    44      0   0   0
    67    66      0   0   0
    67    68      0   0   0
    67    90      0   0   0
    67    91      0   0   0
    67    67      0   0   1
    67    67      0   0  -1
    68    44      0   0   0
    68    45      0   0   0
    68    67      0   0   0
    68    69      0   0   0
    68    91      0   0   0
    68    92      0   0   0
    68    68      0   0   1
    68    68      0   0  -1
    69    45      0   0   0
    69    46      0   0   0
    69    68      0   0   0
    69    70      0   0   0
    69    92      0   0   0
    69    93      0   0   0
    69    69      0   0   1
    69    69      0   0  -1
    70    46      0   0   0
    70    47      0   0   0
    70    69      0   0   0
    70    71      0   0   0
    70    93      0   0   0
    70    94      0   0   0
    70    70      0   0   1
    70    70      0   0  -1
    71    47      0   0   0
    71    48      0   0   0
    71    70      0   0   0
    71    72      0   0   0
    71    94      0   0   0
    71    95      0   0   0
    71    71      0   0   1
    71    71      0   0  -1
    72    48      0   0   0
    72    71      0   0   0
    72    95      0   0   0
    72    96      0   0   0
    72    25      0   1   0
    72    49      0   1   0
    72    72      0   0   1
    72    72      0   0  -1
    73    49      0   0   0
    73    50      0   0   0
    73    74      0   0   0
    73    97      0   0   0
    73    96      0  -1   0
    73   120      0  -1   0
    73    73      0   0   1
    73    73      0   0  -1
    74    50      0   0   0
    74    51      0   0   0
    74    73      0   0   0
    74    75      0   0   0
    74    97      0   0   0
    74    98      0   0   0
    74    74      0   0   1
    74    74      0   0  -1
    75    51      0   0   0
    75    52      0   0   0
    75    74      0   0   0
    75    76      0   0   0
    75    98      0   0   0
    75    99      0   0   0
    75    75      0   0   1
    75    75      0   0  -1
    76    52      0   0   0
    76    53      0   0   0
    76    75      0   0   0
    76    77      0   0   0
    76    99      0   0   0
    76   100      0   0   0
    76    76      0   0   1
    76    76      0   0  -1
    77    53      0   0   0
    77    54      0   0   0
    77    76      0   0   0
    77    78      0   0   0
    77   100      0   0   0
    77   101      0   0   0
    77    77      0   0   1
    77    77      0   0  -1
    78    54      0   0   0
    78    55      0   0   0
    78    77      0   0   0
    78    79      0   0   0
    78   101      0   0   0
    78   102      0   0   0
    78    78      0   0   1
    78    78      0   0  -1
    79    55      0   0   0
    79    56      0   0   0
    79    78      0   0   0
    79    80      0   0   0
    79   102      0   0   0
    79   103      0   0   0
    79    79      0   0   1
    79    79      0   0  -1
    80    56      0   0   0
    80    57      0   0   0
    80    79      0   0   0
    80    81      0   0   0
    80   103      0   0   0
    80   104      0   0   0
    80    80      0   0   1
    80    80      0   0  -1
    81    57      0   0   0
    81    58      0   0   0
    81    80      0   0   0
    81    82      0   0   0
    81   104      0   0   0
    81   105      0   0   0
    81    81      0   0   1
    81    81      0   0  -1
    82    58      0   0   0
    82    59      0   0   0
    82    81      0   0   0
    82    83      0   0   0
    82   105      0   0   0
    82   106      0   0   0
    82    82      0   0   1
    82    82      0   0  -1
    83    59      0   0   0
    83    60      0   0   0
    83    82      0   0   0
    83    84      0   0   0
    83   106      0   0   0
    83   107      0   0   0
    83    83      0   0   1
    83    83      0   0  -1
    84    60      0   0   0
    84    61      0   0   0
    84    83      0   0   0
    84    85      0   0   0
    84   107      0   0   0
    84   108      0   0   0
    84    84      0   0   1
    84    84      0   0  -1
    85    61      0   0   0
    85    62      0   0   0
    85    84      0   0   0
    85    86      0   0   0
    85   108      0   0   0
    85   109      0   0   0
    85    85      0   0   1
    85    85      0   0  -1
    86    62      0   0   0
    86    63      0   0   0
    86    85      0   0   0
    86    87      0   0   0
    86   109      0   0   0
    86   110      0   0   0
    86    86      0   0   1
    86    86      0   0  -1
    87    63      0   0   0
    87    64      0   0   0
    87    86      0   0   0
    87    88      0   0   0
    87   110      0   0   0
    87   111      0   0   0
    87    87      0   0   1
    87    87      0   0  -1
    88    64      0   0   0
    88    65      0   0   0
    88    87      0   0   0
    88    89      0   0   0
    88   111      0   0   0
    88   112      0   0   0
    88    88      0   0   1
    88    88      0   0  -1
    89    65      0   0   0
    89    66      0   0   0
    89    88      0   0   0
    89    90      0   0   0
    89   112      0   0   0
    89   113      0   0   0
    89    89      0   0   1
    89    89      0   0  -1
    90    66      0   0   0
    90    67      0   0   0
    90    89      0   0   0
    90    91      0   0   0
    90   113      0   0   0
    90   114      0   0   0
    90    90      0   0   1
    90    90      0   0  -1
    91    67      0   0   0
    91    68      0   0   0
    91    90      0   0   0
    91    92      0   0   0
    91   114      0   0   0
    91   115      0   0   0
    91    91      0   0   1
    91    91      0   0  -1
    92    68      0   0   0
    92    69      0   0   0
    92    91      0   0   0
    92    93      0   0   0
    92   115      0   0   0
    92   116      0   0   0
    92    92      0   0   1
    92    92      0   0  -1
    93    69      0   0   0
    93    70      0   0   0
    93    92      0   0   0
    93    94      0   0   0
    93   116      0   0   0
    93   117      0   0   0
    93    93      0   0   1
    93    93      0   0  -1
    94    70      0   0   0
    94    71      0   0   0
    94    93      0   0   0
    94    95      0   0   0
    94   117      0   0   0
    94   118      0   0   0
    94    94      0   0   1
    94    94      0   0  -1
    95    71      0   0   0
    95    72      0   0   0
    95    94      0   0   0
    95    96      0   0   0
    95   118      0   0   0
    95   119      0   0   0
    95    95      0   0   1
    95    95      0   0  -1
    96    72      0   0   0
    96    95      0   0   0
    96   119      0   0   0
    96   120      0   0   0
    96    49      0   1   0
    96    73      0   1   0
    96    96      0   0   1
    96    96      0   0  -1
    97    73      0   0   0
    97    74      0   0   0
    97    98      0   0   0
    97   121      0   0   0
    97   120      0  -1   0
    97   144      0  -1   0
    97    97      0   0   1
    97    97      0   0  -1
    98    74      0   0   0
    98    75      0   0   0
    98    97      0   0   0
    98    99      0   0   0
    98   121      0   0   0
    98   122      0   0   0
    98    98      0   0   1
    98    98      0   0  -1
    99    75      0   0   0
    99    76      0   0   0
    99    98      0   0   0
    99   100      0   0   0
    99   122      0   0   0
    99   123      0   0   0
    99    99      0   0   1
    99    99      0   0  -1
   100    76      0   0   0
   100    77      0   0   0
   100    99      0   0   0
   100   101      0   0   0
   100   123      0   0   0
   100   124      0   0   0
   100   100      0   0   1
   100   100      0   0  -1
   101    77      0   0   0
   101    78      0   0   0
   101   100      0   0   0
   101   102      0   0   0
   101   124      0   0   0
   101   125      0   0   0
   101   101      0   0   1
   101   101      0   0  -1
   102    78      0   0   0
   102    79      0   0   0
   102   101      0   0   0
   102   103      0   0   0
   102   125      0   0   0
   102   126      0   0   0
   102   102      0   0   1
   102   102      0   0  -1
   103    79      0   0   0
   103    80      0   0   0
   103   102      0   0   0
   103   104      0   0   0
   103   126      0   0   0
   103   127      0   0   0
   103   103      0   0   1
   103   103      0   0  -1
   104    80      0   0   0
   104    81      0   0   0
   104   103      0   0   0
   104   105      0   0   0
   104   127      0   0   0
   104   128      0   0   0
   104   104      0   0   1
   104   104      0   0  -1
   105    81      0   0   0
   105    82      0   0   0
   105   104      0   0   0
   105   106      0   0   0
   105   128      0   0   0
   105   129      0   0   0
   105   105      0   0   1
   105   105      0   0  -1
   106    82      0   0   0
   106    83      0   0   0
   106   105      0   0   0
   106   107      0   0   0
   106   129      0   0   0
   106   130      0   0   0
   106   106      0   0   1
   106   106      0   0  -1
   107    83      0   0   0
   107    84      0   0   0
   107   106      0   0   0
   107   108      0   0   0
   107   130      0   0   0
   107   131      0   0   0
   107   107      0   0   1
   107   107      0   0  -1
   108    84      0   0   0
   108    85      0   0   0
   108   107      0   0   0
   108   109      0   0   0
   108   131      0   0   0
   108   132      0   0   0
   108   108      0   0   1
   108   108      0   0  -1
   109    85      0   0   0
   109    86      0   0   0
   109   108      0   0   0
   109   110      0   0   0
   109   132      0   0   0
   109   133      0   0   0
   109   109      0   0   1
   109   109      0   0  -1
   110    86      0   0   0
   110    87      0   0   0
   110   109      0   0   0
   110   111      0   0   0
   110   133      0   0   0
   110   134      0   0   0
   110   110      0   0   1
   110   110      0   0  -1
   111    87      0   0   0
   111    88      0   0   0
   111   110      0   0   0
   111   112      0   0   0
   111   134      0   0   0
   111   135      0   0   0
   111   111      0   0   1
   111   111      0   0  -1
   112    88      0   0   0
   112    89      0   0   0
   112   111      0   0   0
   112   113      0   0   0
   112   135      0   0   0
   112   136      0   0   0
   112   112      0   0   1
   112   112      0   0  -1
   113    89      0   0   0
   113    90      0   0   0
   113   112      0   0   0
   113   114      0   0   0
   113   136      0   0   0
   113   137      0   0   0
   113   113      0   0   1
   113   113      0   0  -1
   114    90      0   0   0
   114    91      0   0   0
   114   113      0   0   0
   114   115      0   0   0
   114   137      0   0   0
   114   138      0   0   0
   114   114      0   0   1
   114   114      0   0  -1
   115    91      0   0   0
   115    92      0   0   0
   115   114      0   0   0
   115   116      0   0   0
   115   138      0   0   0
   115   139      0   0   0
   115   115      0   0   1
   115   115      0   0  -1
   116    92      0   0   0
   116    93      0   0   0
   116   115      0   0   0
   116   117      0   0   0
   116   139      0   0   0
   116   140      0   0   0
   116   116      0   0   1
   116   116      0   0  -1
   117    93      0   0   0
   117    94      0   0   0
   117   116      0   0   0
   117   118      0   0   0
   117   140      0   0   0
   117   141      0   0   0
   117   117      0   0   1
   117   117      0   0  -1
   118    94      0   0   0
   118    95      0   0   0
   118   117      0   0   0
   118   119      0   0   0
   118   141      0   0   0
   118   142      0   0   0
   118   118      0   0   1
   118   118      0   0  -1
   119    95      0   0   0
   119    96      0   0   0
   119   118      0   0   0
   119   120      0   0   0
   119   142      0   0   0
   119   143      0   0   0
   119   119      0   0   1
   119   119      0   0  -1
   120    96      0   0   0
   120   119      0   0   0
   120   143      0   0   0
   120   144      0   0   0
   120    73      0   1   0
   120    97      0   1   0
   120   120      0   0   1
   120   120      0   0  -1
   121    97      0   0   0
   121    98      0   0   0
   121   122      0   0   0
   121   145      0   0   0
   121   144      0  -1   0
   121   168      0  -1   0
   121   121      0   0   1
   121   121      0   0  -1
   122    98      0   0   0
   122    99      0   0   0
   122   121      0   0   0
   122   123      0   0   0
   122   145      0   0   0
   122   146      0   0   0
   122   122      0   0   1
   122   122      0   0  -1
   123    99      0   0   0
   123   100      0   0   0
   123   122      0   0   0
   123   124      0   0   0
   123   146      0   0   0
   123   147      0   0   0
   123   123      0   0   1
   123   123      0   0  -1
   124   100      0   0   0
   124   101      0   0   0
   124   123      0   0   0
   124   125      0   0   0
   124   147      0   0   0
   124   148      0   0   0
   124   124      0   0   1
   124   124      0   0  -1
   125   101      0   0   0
   125   102      0   0   0
   125   124      0   0   0
   125   126      0   0   0
   125   148      0   0   0
   125   149      0   0   0
   125   125      0   0   1
   125   125      0   0  -1
   126   102      0   0   0
   126   103      0   0   0
   126   125      0   0   0
   126   127      0   0   0
   126   149      0   0   0
   126   150      0   0   0
   126   126      0   0   1
   126   126      0   0  -1
   127   103      0   0   0
   127   104      0   0   0
   127   126      0   0   0
   127   128      0   0   0
   127   150      0   0   0
   127   151      0   0   0
   127   127      0   0   1
   127   127      0   0  -1
   128   104      0   0   0
   128   105      0   0   0
   128   127      0   0   0
   128   129      0   0   0
   128   151      0   0   0
   128   152      0   0   0
   128   128      0   0   1
   128   128      0   0  -1
   129   105      0   0   0
   129   106      0   0   0
   129   128      0   0   0
   129   130      0   0   0
   129   152      0   0   0
   129   153      0   0   0
   129   129      0   0   1
   129   129      0   0  -1
   130   106      0   0   0
   130   107      0   0   0
   130   129      0   0   0
   130   131      0   0   0
   130   153      0   0   0
   130   154      0   0   0
   130   130      0   0   1
   130   130      0   0  -1
   131   107      0   0   0
   131   108      0   0   0
   131   130      0   0   0
   131   132      0   0   0
   131   154      0   0   0
   131   155      0   0   0
   131   131      0   0   1
   131   131      0   0  -1
   132   108      0   0   0
   132   109      0   0   0
   132   131      0   0   0
   132   133      0   0   0
   132   155      0   0   0
   132   156      0   0   0
   132   132      0   0   1
   132   132      0   0  -1
   133   109      0   0   0
   133   110      0   0   0
   133   132      0   0   0
   133   134      0   0   0
   133   156      0   0   0
   133   157      0   0   0
   133   133      0   0   1
   133   133      0   0  -1
   134   110      0   0   0
   134   111      0   0   0
   134   133      0   0   0
   134   135      0   0   0
   134   157      0   0   0
   134   158      0   0   0
   134   134      0   0   1
   134   134      0   0  -1
   135   111      0   0   0
   135   112      0   0   0
   135   134      0   0   0
   135   136      0   0   0
   135   158      0   0   0
   135   159      0   0   0
   135   135      0   0   1
   135   135      0   0  -1
   136   112      0   0   0
   136   113      0   0   0
   136   135      0   0   0
   136   137      0   0   0
   136   159      0   0   0
   136   160      0   0   0
   136   136      0   0   1
   136   136      0   0  -1
   137   113      0   0   0
   137   114      0   0   0
   137   136      0   0   0
   137   138      0   0   0
   137   160      0   0   0
   137   161      0   0   0
   137   137      0   0   1
   137   137      0   0  -1
   138   114      0   0   0
   138   115      0   0   0
   138   137      0   0   0
   138   139      0   0   0
   138   161      0   0   0
   138   162      0   0   0
   138   138      0   0   1
   138   138      0   0  -1
   139   115      0   0   0
   139   116      0   0   0
   139   138      0   0   0
   139   140      0   0   0
   139   162      0   0   0
   139   163      0   0   0
   139   139      0   0   1
   139   139      0   0  -1
   140   116      0   0   0
   140   117      0   0   0
   140   139      0   0   0
   140   141      0   0   0
   140   163      0   0   0
   140   164      0   0   0
   140   140      0   0   1
   140   140      0   0  -1
   141   117      0   0   0
   141   118      0   0   0
   141   140      0   0   0
   141   142      0   0   0
   141   164      0   0   0
   141   165      0   0   0
   141   141      0   0   1
   141   141      0   0  -1
   142   118      0   0   0
   142   119      0   0   0
   142   141      0   0   0
   142   143      0   0   0
   142   165      0   0   0
   142   166      0   0   0
   142   142      0   0   1
   142   142      0   0  -1
   143   119      0   0   0
   143   120      0   0   0
   143   142      0   0   0
   143   144      0   0   0
   143   166      0   0   0
   143   167      0   0   0
   143   143      0   0   1
   143   143      0   0  -1
   144   120      0   0   0
   144   143      0   0   0
   144   167      0   0   0
   144   168      0   0   0
   144    97      0   1   0
   144   121      0   1   0
   144   144      0   0   1
   144   144      0   0  -1
   145   121      0   0   0
   145   122      0   0   0
   145   146      0   0   0
   145   169      0   0   0
   145   168      0  -1   0
   145   192      0  -1   0
   145   145      0   0   1
   145   145      0   0  -1
   146   122      0   0   0
   146   123      0   0   0
   146   145      0   0   0
   146   147      0   0   0
   146   169      0   0   0
   146   170      0   0   0
   146   146      0   0   1
   146   146      0   0  -1
   147   123      0   0   0
   147   124      0   0   0
   147   146      0   0   0
   147   148      0   0   0
   147   170      0   0   0
   147   171      0   0   0
   147   147      0   0   1
   147   147      0   0  -1
   148   124      0   0   0
   148   125      0   0   0
   148   147      0   0   0
   148   149      0   0   0
   148   171      0   0   0
   148   172      0   0   0
   148   148      0   0   1
   148   148      0   0  -1
   149   125      0   0   0
   149   126      0   0   0
   149   148      0   0   0
   149   150      0   0   0
   149   172      0   0   0
   149   173      0   0   0
   149   149      0   0   1
   149   149      0   0  -1
   150   126      0   0   0
   150   127      0   0   0
   150   149      0   0   0
   150   151      0   0   0
   150   173      0   0   0
   150   174      0   0   0
   150   150      0   0   1
   150   150      0   0  -1
   151   127      0   0   0
   151   128      0   0   0
   151   150      0   0   0
   151   152      0   0   0
   151   174      0   0   0
   151   175      0   0   0
   151   151      0   0   1
   151   151      0   0  -1
   152   128      0   0   0
   152   129      0   0   0
   152   151      0   0   0
   152   153      0   0   0
   152   175      0   0   0
   152   176      0   0   0
   152   152      0   0   1
   152   152      0   0  -1
   153   129      0   0   0
   153   130      0   0   0
   153   152      0   0   0
   153   154      0   0   0
   153   176      0   0   0
   153   177      0   0   0
   153   153      0   0   1
   153   153      0   0  -1
   154   130      0   0   0
   154   131      0   0   0
   154   153      0   0   0
   154   155      0   0   0
   154   177      0   0   0
   154   178      0   0   0
   154   154      0   0   1
   154   154      0   0  -1
   155   131      0   0   0
   155   132      0   0   0
   155   154      0   0   0
   155   156      0   0   0
   155   178      0   0   0
   155   179      0   0   0
   155   155      0   0   1
   155   155      0   0  -1
   156   132      0   0   0
   156   133      0   0   0
   156   155      0   0   0
   156   157      0   0   0
   156   179      0   0   0
   156   180      0   0   0
   156   156      0   0   1
   156   156      0   0  -1
   157   133      0   0   0
   157   134      0   0   0
   157   156      0   0   0
   157   158      0   0   0
   157   180      0   0   0
   157   181      0   0   0
   157   157      0   0   1
   157   157      0   0  -1
   158   134      0   0   0
   158   135      0   0   0
   158   157      0   0   0
   158   159      0   0   0
   158   181      0   0   0
   158   182      0   0   0
   158   158      0   0   1
   158   158      0   0  -1
   159   135      0   0   0
   159   136      0   0   0
   159   158      0   0   0
   159   160      0   0   0
   159   182      0   0   0
   159   183      0   0   0
   159   159      0   0   1
   159   159      0   0  -1
   160   136      0   0   0
   160   137      0   0   0
   160   159      0   0   0
   160   161      0   0   0
   160   183      0   0   0
   160   184      0   0   0
   160   160      0   0   1
   160   160      0   0  -1
   161   137      0   0   0
   161   138      0   0   0
   161   160      0   0   0
   161   162      0   0   0
   161   184      0   0   0
   161   185      0   0   0
   161   161      0   0   1
   161   161      0   0  -1
   162   138      0   0   0
   162   139      0   0   0
   162   161      0   0   0
   162   163      0   0   0
   162   185      0   0   0
   162   186      0   0   0
   162   162      0   0   1
   162   162      0   0  -1
   163   139      0   0   0
   163   140      0   0   0
   163   162      0   0   0
   163   164      0   0   0
   163   186      0   0   0
   163   187      0   0   0
   163   163      0   0   1
   163   163      0   0  -1
   164   140      0   0   0
   164   141      0   0   0
   164   163      0   0   0
   164   165      0   0   0
   164   187      0   0   0
   164   188      0   0   0
   164   164      0   0   1
   164   164      0   0  -1
   165   141      0   0   0
   165   142      0   0   0
   165   164      0   0   0
   165   166      0   0   0
   165   188      0   0   0
   165   189      0   0   0
   165   165      0   0   1
   165   165      0   0  -1
   166   142      0   0   0
   166   143      0   0   0
   166   165      0   0   0
   166   167      0   0   0
   166   189      0   0   0
   166   190      0   0   0
   166   166      0   0   1
   166   166      0   0  -1
   167   143      0   0   0
   167   144      0   0   0
   167   166      0   0   0
   167   168      0   0   0
   167   190      0   0   0
   167   191      0   0   0
   167   167      0   0   1
   167   167      0   0  -1
   168   144      0   0   0
   168   167      0   0   0
   168   191      0   0   0
   168   192      0   0   0
   168   121      0   1   0
   168   145      0   1   0
   168   168      0   0   1
   168   168      0   0  -1
   169   145      0   0   0
   169   146      0   0   0
   169   170      0   0   0
   169   193      0   0   0
   169   192      0  -1   0
   169   216      0  -1   0
   169   169      0   0   1
   169   169      0   0  -1
   170   146      0   0   0
   170   147      0   0   0
   170   169      0   0   0
   170   171      0   0   0
   170   193      0   0   0
   170   194      0   0   0
   170   170      0   0   1
   170   170      0   0  -1
   171   147      0   0   0
   171   148      0   0   0
   171   170      0   0   0
   171   172      0   0   0
   171   194      0   0   0
   171   195      0   0   0
   171   171      0   0   1
   171   171      0   0  -1
   172   148      0   0   0
   172   149      0   0   0
   172   171      0   0   0
   172   173      0   0   0
   172   195      0   0   0
   172   196      0   0   0
   172   172      0   0   1
   172   172      0   0  -1
   173   149      0   0   0
   173   150      0   0   0
   173   172      0   0   0
   173   174      0   0   0
   173   196      0   0   0
   173   197      0   0   0
   173   173      0   0   1
   173   173      0   0  -1
   174   150      0   0   0
   174   151      0   0   0
   174   173      0   0   0
   174   175      0   0   0
   174   197      0   0   0
   174   198      0   0   0
   174   174      0   0   1
   174   174      0   0  -1
   175   151      0   0   0
   175   152      0   0   0
   175   174      0   0   0
   175   176      0   0   0
   175   198      0   0   0
   175   199      0   0   0
   175   175      0   0   1
   175   175      0   0  -1
   176   152      0   0   0
   176   153      0   0   0
   176   175      0   0   0
   176   177      0   0   0
   176   199      0   0   0
   176   200      0   0   0
   176   176      0   0   1
   176   176      0   0  -1
   177   153      0   0   0
   177   154      0   0   0
   177   176      0   0   0
   177   178      0   0   0
   177   200      0   0   0
   177   201      0   0   0
   177   177      0   0   1
   177   177      0   0  -1
   178   154      0   0   0
   178   155      0   0   0
   178   177      0   0   0
   178   179      0   0   0
   178   201      0   0   0
   178   202      0   0   0
   178   178      0   0   1
   178   178      0   0  -1
   179   155      0   0   0
   179   156      0   0   0
   179   178      0   0   0
   179   180      0   0   0
   179   202      0   0   0
   179   203      0   0   0
   179   179      0   0   1
   179   179      0   0  -1
   180   156      0   0   0
   180   157      0   0   0
   180   179      0   0   0
   180   181      0   0   0
   180   203      0   0   0
   180   204      0   0   0
   180   180      0   0   1
   180   180      0   0  -1
   181   157      0   0   0
   181   158      0   0   0
   181   180      0   0   0
   181   182      0   0   0
   181   204      0   0   0
   181   205      0   0   0
   181   181      0   0   1
   181   181      0   0  -1
   182   158      0   0   0
   182   159      0   0   0
   182   181      0   0   0
   182   183      0   0   0
   182   205      0   0   0
   182   206      0   0   0
   182   182      0   0   1
   182   182      0   0  -1
   183   159      0   0   0
   183   160      0   0   0
   183   182      0   0   0
   183   184      0   0   0
   183   206      0   0   0
   183   207      0   0   0
   183   183      0   0   1
   183   183      0   0  -1
   184   160      0   0   0
   184   161      0   0   0
   184   183      0   0   0
   184   185      0   0   0
   184   207      0   0   0
   184   208      0   0   0
   184   184      0   0   1
   184   184      0   0  -1
   185   161      0   0   0
   185   162      0   0   0
   185   184      0   0   0
   185   186      0   0   0
   185   208      0   0   0
   185   209      0   0   0
   185   185      0   0   1
   185   185      0   0  -1
   186   162      0   0   0
   186   163      0   0   0
   186   185      0   0   0
   186   187      0   0   0
   186   209      0   0   0
   186   210      0   0   0
   186   186      0   0   1
   186   186      0   0  -1
   187   163      0   0   0
   187   164      0   0   0
   187   186      0   0   0
   187   188      0   0   0
   187   210      0   0   0
   187   211      0   0   0
   187   187      0   0   1
   187   187      0   0  -1
   188   164      0   0   0
   188   165      0   0   0
   188   187      0   0   0
   188   189      0   0   0
   188   211      0   0   0
   188   212      0   0   0
   188   188      0   0   1
   188   188      0   0  -1
   189   165      0   0   0
   189   166      0   0   0
   189   188      0   0   0
   189   190      0   0   0
   189   212      0   0   0
   189   213      0   0   0
   189   189      0   0   1
   189   189      0   0  -1
   190   166      0   0   0
   190   167      0   0   0
   190   189      0   0   0
   190   191      0   0   0
   190   213      0   0   0
   190   214      0   0   0
   190   190      0   0   1
   190   190      0   0  -1
   191   167      0   0   0
   191   168      0   0   0
   191   190      0   0   0
   191   192      0   0   0
   191   214      0   0   0
   191   215      0   0   0
   191   191      0   0   1
   191   191      0   0  -1
   192   168      0   0   0
   192   191      0   0   0
   192   215      0   0   0
   192   216      0   0   0
   192   145      0   1   0
   192   169      0   1   0
   192   192      0   0   1
   192   192      0   0  -1
   193   169      0   0   0
   193   170      0   0   0
   193   194      0   0   0
   193   217      0   0   0
   193   216      0  -1   0
   193   240      0  -1   0
   193   193      0   0   1
   193   193      0   0  -1
   194   170      0   0   0
   194   171      0   0   0
   194   193      0   0   0
   194   195      0   0   0
   194   217      0   0   0
   194   218      0   0   0
   194   194      0   0   1
   194   194      0   0  -1
   195   171      0   0   0
   195   172      0   0   0
   195   194      0   0   0
   195   196      0   0   0
   195   218      0   0   0
   195   219      0   0   0
   195   195      0   0   1
   195   195      0   0  -1
   196   172      0   0   0
   196   173      0   0   0
   196   195      0   0   0
   196   197      0   0   0
   196   219      0   0   0
   196   220      0   0   0
   196   196      0   0   1
   196   196      0   0  -1
   197   173      0   0   0
   197   174      0   0   0
   197   196      0   0   0
   197   198      0   0   0
   197   220      0   0   0
   197   221      0   0   0
   197   197      0   0   1
   197   197      0   0  -1
   198   174      0   0   0
   198   175      0   0   0
   198   197      0   0   0
   198   199      0   0   0
   198   221      0   0   0
   198   222      0   0   0
   198   198      0   0   1
   198   198      0   0  -1
   199   175      0   0   0
   199   176      0   0   0
   199   198      0   0   0
   199   200      0   0   0
   199   222      0   0   0
   199   223      0   0   0
   199   199      0   0   1
   199   199      0   0  -1
   200   176      0   0   0
   200   177      0   0   0
   200   199      0   0   0
   200   201      0   0   0
   200   223      0   0   0
   200   224      0   0   0
   200   200      0   0   1
   200   200      0   0  -1
   201   177      0   0   0
   201   178      0   0   0
   201   200      0   0   0
   201   202      0   0   0
   201   224      0   0   0
   201   225      0   0   0
   201   201      0   0   1
   201   201      0   0  -1
   202   178      0   0   0
   202   179      0   0   0
   202   201      0   0   0
   202   203      0   0   0
   202   225      0   0   0
   202   226      0   0   0
   202   202      0   0   1
   202   202      0   0  -1
   203   179      0   0   0
   203   180      0   0   0
   203   202      0   0   0
   203   204      0   0   0
   203   226      0   0   0
   203   227      0   0   0
   203   203      0   0   1
   203   203      0   0  -1
   204   180      0   0   0
   204   181      0   0   0
   204   203      0   0   0
   204   205      0   0   0
   204   227      0   0   0
   204   228      0   0   0
   204   204      0   0   1
   204   204      0   0  -1
   205   181      0   0   0
   205   182      0   0   0
   205   204      0   0   0
   205   206      0   0   0
   205   228      0   0   0
   205   229      0   0   0
   205   205      0   0   1
   205   205      0   0  -1
   206   182      0   0   0
   206   183      0   0   0
   206   205      0   0   0
   206   207      0   0   0
   206   229      0   0   0
   206   230      0   0   0
   206   206      0   0   1
   206   206      0   0  -1
   207   183      0   0   0
   207   184      0   0   0
   207   206      0   0   0
   207   208      0   0   0
   207   230      0   0   0
   207   231      0   0   0
   207   207      0   0   1
   207   207      0   0  -1
   208   184      0   0   0
   208   185      0   0   0
   208   207      0   0   0
   208   209      0   0   0
   208   231      0   0   0
   208   232      0   0   0
   208   208      0   0   1
   208   208      0   0  -1
   209   185      0   0   0
   209   186      0   0   0
   209   208      0   0   0
   209   210      0   0   0
   209   232      0   0   0
   209   233      0   0   0
   209   209      0   0   1
   209   209      0   0  -1
   210   186      0   0   0
   210   187      0   0   0
   210   209      0   0   0
   210   211      0   0   0
   210   233      0   0   0
   210   234      0   0   0
   210   210      0   0   1
   210   210      0   0  -1
   211   187      0   0   0
   211   188      0   0   0
   211   210      0   0   0
   211   212      0   0   0
   211   234      0   0   0
   211   235      0   0   0
   211   211      0   0   1
   211   211      0   0  -1
   212   188      0   0   0
   212   189      0   0   0
   212   211      0   0   0
   212   213      0   0   0
   212   235      0   0   0
   212   236      0   0   0
   212   212      0   0   1
   212   212      0   0  -1
   213   189      0   0   0
   213   190      0   0   0
   213   212      0   0   0
   213   214      0   0   0
   213   236      0   0   0
   213   237      0   0   0
   213   213      0   0   1
   213   213      0   0  -1
   214   190      0   0   0
   214   191      0   0   0
   214   213      0   0   0
   214   215      0   0   0
   214   237      0   0   0
   214   238      0   0   0
   214   214      0   0   1
   214   214      0   0  -1
   215   191      0   0   0
   215   192      0   0   0
   215   214      0   0   0
   215   216      0   0   0
   215   238      0   0   0
   215   239      0   0   0
   215   215      0   0   1
   215   215      0   0  -1
   216   192      0   0   0
   216   215      0   0   0
   216   239      0   0   0
   216   240      0   0   0
   216   169      0   1   0
   216   193      0   1   0
   216   216      0   0   1
   216   216      0   0  -1
   217   193      0   0   0
   217   194      0   0   0
   217   218      0   0   0
   217   241      0   0   0
   217   240      0  -1   0
   217   264      0  -1   0
   217   217      0   0   1
   217   217      0   0  -1
   218   194      0   0   0
   218   195      0   0   0
   218   217      0   0   0
   218   219      0   0   0
   218   241      0   0   0
   218   242      0   0   0
   218   218      0   0   1
   218   218      0   0  -1
   219   195      0   0   0
   219   196      0   0   0
   219   218      0   0   0
   219   220      0   0   0
   219   242      0   0   0
   219   243      0   0   0
   219   219      0   0   1
   219   219      0   0  -1
   220   196      0   0   0
   220   197      0   0   0
   220   219      0   0   0
   220   221      0   0   0
   220   243      0   0   0
   220   244      0   0   0
   220   220      0   0   1
   220   220      0   0  -1
   221   197      0   0   0
   221   198      0   0   0
   221   220      0   0   0
   221   222      0   0   0
   221   244      0   0   0
   221   245      0   0   0
   221   221      0   0   1
   221   221      0   0  -1
   222   198      0   0   0
   222   199      0   0   0
   222   221      0   0   0
   222   223      0   0   0
   222   245      0   0   0
   222   246      0   0   0
   222   222      0   0   1
   222   222      0   0  -1
   223   199      0   0   0
   223   200      0   0   0
   223   222      0   0   0
   223   224      0   0   0
   223   246      0   0   0
   223   247      0   0   0
   223   223      0   0   1
   223   223      0   0  -1
   224   200      0   0   0
   224   201      0   0   0
   224   223      0   0   0
   224   225      0   0   0
   224   247      0   0   0
   224   248      0   0   0
   224   224      0   0   1
   224   224      0   0  -1
   225   201      0   0   0
   225   202      0   0   0
   225   224      0   0   0
   225   226      0   0   0
   225   248      0   0   0
   225   249      0   0   0
   225   225      0   0   1
   225   225      0   0  -1
   226   202      0   0   0
   226   203      0   0   0
   226   225      0   0   0
   226   227      0   0   0
   226   249      0   0   0
   226   250      0   0   0
   226   226      0   0   1
   226   226      0   0  -1
   227   203      0   0   0
   227   204      0   0   0
   227   226      0   0   0
   227   228      0   0   0
   227   250      0   0   0
   227   251      0   0   0
   227   227      0   0   1
   227   227      0   0  -1
   228   204      0   0   0
   228   205      0   0   0
   228   227      0   0   0
   228   229      0   0   0
   228   251      0   0   0
   228   252      0   0   0
   228   228      0   0   1
   228   228      0   0  -1
   229   205      0   0   0
   229   206      0   0   0
   229   228      0   0   0
   229   230      0   0   0
   229   252      0   0   0
   229   253      0   0   0
   229   229      0   0   1
   229   229      0   0  -1
   230   206      0   0   0
   230   207      0   0   0
   230   229      0   0   0
   230   231      0   0   0
   230   253      0   0   0
   230   254      0   0   0
   230   230      0   0   1
   230   230      0   0  -1
   231   207      0   0   0
   231   208      0   0   0
   231   230      0   0   0
   231   232      0   0   0
   231   254      0   0   0
   231   255      0   0   0
   231   231      0   0   1
   231   231      0   0  -1
   232   208      0   0   0
   232   209      0   0   0
   232   231      0   0   0
[...]
   488   464      0   0   0
   488   465      0   0   0
   488   487      0   0   0
   488   489      0   0   0
   488   511      0   0   0
   488   512      0   0   0
   488   488      0   0   1
   488   488      0   0  -1
   489   465      0   0   0
   489   466      0   0   0
   489   488      0   0   0
   489   490      0   0   0
   489   512      0   0   0
   489   513      0   0   0
   489   489      0   0   1
   489   489      0   0  -1
   490   466      0   0   0
   490   467      0   0   0
   490   489      0   0   0
   490   491      0   0   0
   490   513      0   0   0
   490   514      0   0   0
   490   490      0   0   1
   490   490      0   0  -1
   491   467      0   0   0
   491   468      0   0   0
   491   490      0   0   0
   491   492      0   0   0
   491   514      0   0   0
   491   515      0   0   0
   491   491      0   0   1
   491   491      0   0  -1
   492   468      0   0   0
   492   469      0   0   0
   492   491      0   0   0
   492   493      0   0   0
   492   515      0   0   0
   492   516      0   0   0
   492   492      0   0   1
   492   492      0   0  -1
   493   469      0   0   0
   493   470      0   0   0
   493   492      0   0   0
   493   494      0   0   0
   493   516      0   0   0
   493   517      0   0   0
   493   493      0   0   1
   493   493      0   0  -1
   494   470      0   0   0
   494   471      0   0   0
   494   493      0   0   0
   494   495      0   0   0
   494   517      0   0   0
   494   518      0   0   0
   494   494      0   0   1
   494   494      0   0  -1
   495   471      0   0   0
   495   472      0   0   0
   495   494      0   0   0
   495   496      0   0   0
   495   518      0   0   0
   495   519      0   0   0
   495   495      0   0   1
   495   495      0   0  -1
   496   472      0   0   0
   496   473      0   0   0
   496   495      0   0   0
   496   497      0   0   0
   496   519      0   0   0
   496   520      0   0   0
   496   496      0   0   1
   496   496      0   0  -1
   497   473      0   0   0
   497   474      0   0   0
   497   496      0   0   0
   497   498      0   0   0
   497   520      0   0   0
   497   521      0   0   0
   497   497      0   0   1
   497   497      0   0  -1
   498   474      0   0   0
   498   475      0   0   0
   498   497      0   0   0
   498   499      0   0   0
   498   521      0   0   0
   498   522      0   0   0
   498   498      0   0   1
   498   498      0   0  -1
   499   475      0   0   0
   499   476      0   0   0
   499   498      0   0   0
   499   500      0   0   0
   499   522      0   0   0
   499   523      0   0   0
   499   499      0   0   1
   499   499      0   0  -1
   500   476      0   0   0
   500   477      0   0   0
   500   499      0   0   0
   500   501      0   0   0
   500   523      0   0   0
   500   524      0   0   0
   500   500      0   0   1
   500   500      0   0  -1
   501   477      0   0   0
   501   478      0   0   0
   501   500      0   0   0
   501   502      0   0   0
   501   524      0   0   0
   501   525      0   0   0
   501   501      0   0   1
   501   501      0   0  -1
   502   478      0   0   0
   502   479      0   0   0
   502   501      0   0   0
   502   503      0   0   0
   502   525      0   0   0
   502   526      0   0   0
   502   502      0   0   1
   502   502      0   0  -1
   503   479      0   0   0
   503   480      0   0   0
   503   502      0   0   0
   503   504      0   0   0
   503   526      0   0   0
   503   527      0   0   0
   503   503      0   0   1
   503   503      0   0  -1
   504   480      0   0   0
   504   503      0   0   0
   504   527      0   0   0
   504   528      0   0   0
   504   457      0   1   0
   504   481      0   1   0
   504   504      0   0   1
   504   504      0   0  -1
   505   481      0   0   0
   505   482      0   0   0
   505   506      0   0   0
   505   529      0   0   0
   505   528      0  -1   0
   505   552      0  -1   0
   505   505      0   0   1
   505   505      0   0  -1
   506   482      0   0   0
   506   483      0   0   0
   506   505      0   0   0
   506   507      0   0   0
   506   529      0   0   0
   506   530      0   0   0
   506   506      0   0   1
   506   506      0   0  -1
   507   483      0   0   0
   507   484      0   0   0
   507   506      0   0   0
   507   508      0   0   0
   507   530      0   0   0
   507   531      0   0   0
   507   507      0   0   1
   507   507      0   0  -1
   508   484      0   0   0
   508   485      0   0   0
   508   507      0   0   0
   508   509      0   0   0
   508   531      0   0   0
   508   532      0   0   0
   508   508      0   0   1
   508   508      0   0  -1
   509   485      0   0   0
   509   486      0   0   0
   509   508      0   0   0
   509   510      0   0   0
   509   532      0   0   0
   509   533      0   0   0
   509   509      0   0   1
   509   509      0   0  -1
   510   486      0   0   0
   510   487      0   0   0
   510   509      0   0   0
   510   511      0   0   0
   510   533      0   0   0
   510   534      0   0   0
   510   510      0   0   1
   510   510      0   0  -1
   511   487      0   0   0
   511   488      0   0   0
   511   510      0   0   0
   511   512      0   0   0
   511   534      0   0   0
   511   535      0   0   0
   511   511      0   0   1
   511   511      0   0  -1
   512   488      0   0   0
   512   489      0   0   0
   512   511      0   0   0
   512   513      0   0   0
   512   535      0   0   0
   512   536      0   0   0
   512   512      0   0   1
   512   512      0   0  -1
   513   489      0   0   0
   513   490      0   0   0
   513   512      0   0   0
   513   514      0   0   0
   513   536      0   0   0
   513   537      0   0   0
   513   513      0   0   1
   513   513      0   0  -1
   514   490      0   0   0
   514   491      0   0   0
   514   513      0   0   0
   514   515      0   0   0
   514   537      0   0   0
   514   538      0   0   0
   514   514      0   0   1
   514   514      0   0  -1
   515   491      0   0   0
   515   492      0   0   0
   515   514      0   0   0
   515   516      0   0   0
   515   538      0   0   0
   515   539      0   0   0
   515   515      0   0   1
   515   515      0   0  -1
   516   492      0   0   0
   516   493      0   0   0
   516   515      0   0   0
   516   517      0   0   0
   516   539      0   0   0
   516   540      0   0   0
   516   516      0   0   1
   516   516      0   0  -1
   517   493      0   0   0
   517   494      0   0   0
   517   516      0   0   0
   517   518      0   0   0
   517   540      0   0   0
   517   541      0   0   0
   517   517      0   0   1
   517   517      0   0  -1
   518   494      0   0   0
   518   495      0   0   0
   518   517      0   0   0
   518   519      0   0   0
   518   541      0   0   0
   518   542      0   0   0
   518   518      0   0   1
   518   518      0   0  -1
   519   495      0   0   0
   519   496      0   0   0
   519   518      0   0   0
   519   520      0   0   0
   519   542      0   0   0
   519   543      0   0   0
   519   519      0   0   1
   519   519      0   0  -1
   520   496      0   0   0
   520   497      0   0   0
   520   519      0   0   0
   520   521      0   0   0
   520   543      0   0   0
   520   544      0   0   0
   520   520      0   0   1
   520   520      0   0  -1
   521   497      0   0   0
   521   498      0   0   0
   521   520      0   0   0
   521   522      0   0   0
   521   544      0   0   0
   521   545      0   0   0
   521   521      0   0   1
   521   521      0   0  -1
   522   498      0   0   0
   522   499      0   0   0
   522   521      0   0   0
   522   523      0   0   0
   522   545      0   0   0
   522   546      0   0   0
   522   522      0   0   1
   522   522      0   0  -1
   523   499      0   0   0
   523   500      0   0   0
   523   522      0   0   0
   523   524      0   0   0
   523   546      0   0   0
   523   547      0   0   0
   523   523      0   0   1
   523   523      0   0  -1
   524   500      0   0   0
   524   501      0   0   0
   524   523      0   0   0
   524   525      0   0   0
   524   547      0   0   0
   524   548      0   0   0
   524   524      0   0   1
   524   524      0   0  -1
   525   501      0   0   0
   525   502      0   0   0
   525   524      0   0   0
   525   526      0   0   0
   525   548      0   0   0
   525   549      0   0   0
   525   525      0   0   1
   525   525      0   0  -1
   526   502      0   0   0
   526   503      0   0   0
   526   525      0   0   0
   526   527      0   0   0
   526   549      0   0   0
   526   550      0   0   0
   526   526      0   0   1
   526   526      0   0  -1
   527   503      0   0   0
   527   504      0   0   0
   527   526      0   0   0
   527   528      0   0   0
   527   550      0   0   0
   527   551      0   0   0
   527   527      0   0   1
   527   527      0   0  -1
   528   504      0   0   0
   528   527      0   0   0
   528   551      0   0   0
   528   552      0   0   0
   528   481      0   1   0
   528   505      0   1   0
   528   528      0   0   1
   528   528      0   0  -1
   529   505      0   0   0
   529   506      0   0   0
   529   530      0   0   0
   529   553      0   0   0
   529   552      0  -1   0
   529   576      0  -1   0
   529   529      0   0   1
   529   529      0   0  -1
   530   506      0   0   0
   530   507      0   0   0
   530   529      0   0   0
   530   531      0   0   0
   530   553      0   0   0
   530   554      0   0   0
   530   530      0   0   1
   530   530      0   0  -1
   531   507      0   0   0
   531   508      0   0   0
   531   530      0   0   0
   531   532      0   0   0
   531   554      0   0   0
   531   555      0   0   0
   531   531      0   0   1
   531   531      0   0  -1
   532   508      0   0   0
   532   509      0   0   0
   532   531      0   0   0
   532   533      0   0   0
   532   555      0   0   0
   532   556      0   0   0
   532   532      0   0   1
   532   532      0   0  -1
   533   509      0   0   0
   533   510      0   0   0
   533   532      0   0   0
   533   534      0   0   0
   533   556      0   0   0
   533   557      0   0   0
   533   533      0   0   1
   533   533      0   0  -1
   534   510      0   0   0
   534   511      0   0   0
   534   533      0   0   0
   534   535      0   0   0
   534   557      0   0   0
   534   558      0   0   0
   534   534      0   0   1
   534   534      0   0  -1
   535   511      0   0   0
   535   512      0   0   0
   535   534      0   0   0
   535   536      0   0   0
   535   558      0   0   0
   535   559      0   0   0
   535   535      0   0   1
   535   535      0   0  -1
   536   512      0   0   0
   536   513      0   0   0
   536   535      0   0   0
   536   537      0   0   0
   536   559      0   0   0
   536   560      0   0   0
   536   536      0   0   1
   536   536      0   0  -1
   537   513      0   0   0
   537   514      0   0   0
   537   536      0   0   0
   537   538      0   0   0
   537   560      0   0   0
   537   561      0   0   0
   537   537      0   0   1
   537   537      0   0  -1
   538   514      0   0   0
   538   515      0   0   0
   538   537      0   0   0
   538   539      0   0   0
   538   561      0   0   0
   538   562      0   0   0
   538   538      0   0   1
   538   538      0   0  -1
   539   515      0   0   0
   539   516      0   0   0
   539   538      0   0   0
   539   540      0   0   0
   539   562      0   0   0
   539   563      0   0   0
   539   539      0   0   1
   539   539      0   0  -1
   540   516      0   0   0
   540   517      0   0   0
   540   539      0   0   0
   540   541      0   0   0
   540   563      0   0   0
   540   564      0   0   0
   540   540      0   0   1
   540   540      0   0  -1
   541   517      0   0   0
   541   518      0   0   0
   541   540      0   0   0
   541   542      0   0   0
   541   564      0   0   0
   541   565      0   0   0
   541   541      0   0   1
   541   541      0   0  -1
   542   518      0   0   0
   542   519      0   0   0
   542   541      0   0   0
   542   543      0   0   0
   542   565      0   0   0
   542   566      0   0   0
   542   542      0   0   1
   542   542      0   0  -1
   543   519      0   0   0
   543   520      0   0   0
   543   542      0   0   0
   543   544      0   0   0
   543   566      0   0   0
   543   567      0   0   0
   543   543      0   0   1
   543   543      0   0  -1
   544   520      0   0   0
   544   521      0   0   0
   544   543      0   0   0
   544   545      0   0   0
   544   567      0   0   0
   544   568      0   0   0
   544   544      0   0   1
   544   544      0   0  -1
   545   521      0   0   0
   545   522      0   0   0
   545   544      0   0   0
   545   546      0   0   0
   545   568      0   0   0
   545   569      0   0   0
   545   545      0   0   1
   545   545      0   0  -1
   546   522      0   0   0
   546   523      0   0   0
   546   545      0   0   0
   546   547      0   0   0
   546   569      0   0   0
   546   570      0   0   0
   546   546      0   0   1
   546   546      0   0  -1
   547   523      0   0   0
   547   524      0   0   0
   547   546      0   0   0
   547   548      0   0   0
   547   570      0   0   0
   547   571      0   0   0
   547   547      0   0   1
   547   547      0   0  -1
   548   524      0   0   0
   548   525      0   0   0
   548   547      0   0   0
   548   549      0   0   0
   548   571      0   0   0
   548   572      0   0   0
   548   548      0   0   1
   548   548      0   0  -1
   549   525      0   0   0
   549   526      0   0   0
   549   548      0   0   0
   549   550      0   0   0
   549   572      0   0   0
   549   573      0   0   0
   549   549      0   0   1
   549   549      0   0  -1
   550   526      0   0   0
   550   527      0   0   0
   550   549      0   0   0
   550   551      0   0   0
   550   573      0   0   0
   550   574      0   0   0
   550   550      0   0   1
   550   550      0   0  -1
   551   527      0   0   0
   551   528      0   0   0
   551   550      0   0   0
   551   552      0   0   0
   551   574      0   0   0
   551   575      0   0   0
   551   551      0   0   1
   551   551      0   0  -1
   552   528      0   0   0
   552   551      0   0   0
   552   575      0   0   0
   552   576      0   0   0
   552   505      0   1   0
   552   529      0   1   0
   552   552      0   0   1
   552   552      0   0  -1
   553   529      0   0   0
   553   530      0   0   0
   553   554      0   0   0
   553     1      1   0   0
   553   576      0  -1   0
   553    24      1  -1   0
   553   553      0   0   1
   553   553      0   0  -1
   554   530      0   0   0
   554   531      0   0   0
   554   553      0   0   0
   554   555      0   0   0
   554     1      1   0   0
   554     2      1   0   0
   554   554      0   0   1
   554   554      0   0  -1
   555   531      0   0   0
   555   532      0   0   0
   555   554      0   0   0
   555   556      0   0   0
   555     2      1   0   0
   555     3      1   0   0
   555   555      0   0   1
   555   555      0   0  -1
   556   532      0   0   0
   556   533      0   0   0
   556   555      0   0   0
   556   557      0   0   0
   556     3      1   0   0
   556     4      1   0   0
   556   556      0   0   1
   556   556      0   0  -1
   557   533      0   0   0
   557   534      0   0   0
   557   556      0   0   0
   557   558      0   0   0
   557     4      1   0   0
   557     5      1   0   0
   557   557      0   0   1
   557   557      0   0  -1
   558   534      0   0   0
   558   535      0   0   0
   558   557      0   0   0
   558   559      0   0   0
   558     5      1   0   0
   558     6      1   0   0
   558   558      0   0   1
   558   558      0   0  -1
   559   535      0   0   0
   559   536      0   0   0
   559   558      0   0   0
   559   560      0   0   0
   559     6      1   0   0
   559     7      1   0   0
   559   559      0   0   1
   559   559      0   0  -1
   560   536      0   0   0
   560   537      0   0   0
   560   559      0   0   0
   560   561      0   0   0
   560     7      1   0   0
   560     8      1   0   0
   560   560      0   0   1
   560   560      0   0  -1
   561   537      0   0   0
   561   538      0   0   0
   561   560      0   0   0
   561   562      0   0   0
   561     8      1   0   0
   561     9      1   0   0
   561   561      0   0   1
   561   561      0   0  -1
   562   538      0   0   0
   562   539      0   0   0
   562   561      0   0   0
   562   563      0   0   0
   562     9      1   0   0
   562    10      1   0   0
   562   562      0   0   1
   562   562      0   0  -1
   563   539      0   0   0
   563   540      0   0   0
   563   562      0   0   0
   563   564      0   0   0
   563    10      1   0   0
   563    11      1   0   0
   563   563      0   0   1
   563   563      0   0  -1
   564   540      0   0   0
   564   541      0   0   0
   564   563      0   0   0
   564   565      0   0   0
   564    11      1   0   0
   564    12      1   0   0
   564   564      0   0   1
   564   564      0   0  -1
   565   541      0   0   0
   565   542      0   0   0
   565   564      0   0   0
   565   566      0   0   0
   565    12      1   0   0
   565    13      1   0   0
   565   565      0   0   1
   565   565      0   0  -1
   566   542      0   0   0
   566   543      0   0   0
   566   565      0   0   0
   566   567      0   0   0
   566    13      1   0   0
   566    14      1   0   0
   566   566      0   0   1
   566   566      0   0  -1
   567   543      0   0   0
   567   544      0   0   0
   567   566      0   0   0
   567   568      0   0   0
   567    14      1   0   0
   567    15      1   0   0
   567   567      0   0   1
   567   567      0   0  -1
   568   544      0   0   0
   568   545      0   0   0
   568   567      0   0   0
   568   569      0   0   0
   568    15      1   0   0
   568    16      1   0   0
   568   568      0   0   1
   568   568      0   0  -1
   569   545      0   0   0
   569   546      0   0   0
   569   568      0   0   0
   569   570      0   0   0
   569    16      1   0   0
   569    17      1   0   0
   569   569      0   0   1
   569   569      0   0  -1
   570   546      0   0   0
   570   547      0   0   0
   570   569      0   0   0
   570   571      0   0   0
   570    17      1   0   0
   570    18      1   0   0
   570   570      0   0   1
   570   570      0   0  -1
   571   547      0   0   0
   571   548      0   0   0
   571   570      0   0   0
   571   572      0   0   0
   571    18      1   0   0
   571    19      1   0   0
   571   571      0   0   1
   571   571      0   0  -1
   572   548      0   0   0
   572   549      0   0   0
   572   571      0   0   0
   572   573      0   0   0
   572    19      1   0   0
   572    20      1   0   0
   572   572      0   0   1
   572   572      0   0  -1
   573   549      0   0   0
   573   550      0   0   0
   573   572      0   0   0
   573   574      0   0   0
   573    20      1   0   0
   573    21      1   0   0
   573   573      0   0   1
   573   573      0   0  -1
   574   550      0   0   0
   574   551      0   0   0
   574   573      0   0   0
   574   575      0   0   0
   574    21      1   0   0
   574    22      1   0   0
   574   574      0   0   1
   574   574      0   0  -1
   575   551      0   0   0
   575   552      0   0   0
   575   574      0   0   0
   575   576      0   0   0
   575    22      1   0   0
   575    23      1   0   0
   575   575      0   0   1
   575   575      0   0  -1
   576   552      0   0   0
   576   575      0   0   0
   576    23      1   0   0
   576    24      1   0   0
   576   529      0   1   0
   576   553      0   1   0
   576   576      0   0   1
   576   576      0   0  -1
end nnkpts

begin exclude_bands
   0
end exclude_bands
